LAMMPS (29 Oct 2020)
units lj
dimension 2
atom_style bond
boundary f f p
bond_style harmonic
read_data temp/h_1090756570019349096_8304965550453370084.txt
Reading data file ...
  orthogonal box = (-6.0000000 -6.0000000 -6.0000000) to (6.0000000 6.0000000 6.0000000)
  1 by 1 by 1 MPI processor grid
  reading atoms ...
  7 atoms
  scanning bonds ...
  3 = max bonds/atom
  reading bonds ...
  11 bonds
Finding 1-2 1-3 1-4 neighbors ...
  special bond factors lj:    0.0      0.0      0.0     
  special bond factors coul:  0.0      0.0      0.0     
     4 = max # of 1-2 neighbors
     8 = max # of 1-3 neighbors
    24 = max # of 1-4 neighbors
     6 = max # of special neighbors
  special bonds CPU = 0.000 seconds
  read_data CPU = 0.002 seconds
fix 1 all enforce2d
fix 2 all   nve
fix 3 all enforce2d
fix 4 all langevin 0.00023101297000831602 0.00023101297000831602 1 22981
timestep 0.006
run 166
WARNING: No pairwise cutoff or binsize set. Atom sorting therefore disabled. (src/atom.cpp:2115)
Per MPI rank memory allocation (min/avg/max) = 3.840 | 3.840 | 3.840 Mbytes
Step Temp E_pair E_mol TotEng Press 
       0            0            0            0            0            0 
     166 0.00010050206            0 0.00013911456 0.00022525919 -0.00028853436 
Loop time of 0.000573 on 1 procs for 166 steps with 7 atoms

Performance: 150182198.647 tau/day, 289703.315 timesteps/s
96.2% CPU use with 1 MPI tasks x no OpenMP threads

MPI task timing breakdown:
Section |  min time  |  avg time  |  max time  |%varavg| %total
---------------------------------------------------------------
Pair    | 0          | 0          | 0          |   0.0 |  0.00
Bond    | 0.000122   | 0.000122   | 0.000122   |   0.0 | 21.29
Neigh   | 0          | 0          | 0          |   0.0 |  0.00
Comm    | 4.1e-05    | 4.1e-05    | 4.1e-05    |   0.0 |  7.16
Output  | 3.6e-05    | 3.6e-05    | 3.6e-05    |   0.0 |  6.28
Modify  | 0.000236   | 0.000236   | 0.000236   |   0.0 | 41.19
Other   |            | 0.000138   |            |       | 24.08

Nlocal:        7.00000 ave           7 max           7 min
Histogram: 1 0 0 0 0 0 0 0 0 0
Nghost:        0.00000 ave           0 max           0 min
Histogram: 1 0 0 0 0 0 0 0 0 0
Neighs:        0.00000 ave           0 max           0 min
Histogram: 1 0 0 0 0 0 0 0 0 0

Total # of neighbors = 0
Ave neighs/atom = 0.0000000
Ave special neighs/atom = 6.0000000
Neighbor list builds = 0
Dangerous builds = 0
run 0
Per MPI rank memory allocation (min/avg/max) = 3.840 | 3.840 | 3.840 Mbytes
Step Temp E_pair E_mol TotEng Press 
     166 0.00010006834            0 0.00013911456 0.00022488743 -0.00028855243 
Loop time of 6e-06 on 1 procs for 0 steps with 7 atoms

33.3% CPU use with 1 MPI tasks x no OpenMP threads

MPI task timing breakdown:
Section |  min time  |  avg time  |  max time  |%varavg| %total
---------------------------------------------------------------
Pair    | 0          | 0          | 0          |   0.0 |  0.00
Bond    | 0          | 0          | 0          |   0.0 |  0.00
Neigh   | 0          | 0          | 0          |   0.0 |  0.00
Comm    | 0          | 0          | 0          |   0.0 |  0.00
Output  | 0          | 0          | 0          |   0.0 |  0.00
Modify  | 0          | 0          | 0          |   0.0 |  0.00
Other   |            | 6e-06      |            |       |100.00

Nlocal:        7.00000 ave           7 max           7 min
Histogram: 1 0 0 0 0 0 0 0 0 0
Nghost:        0.00000 ave           0 max           0 min
Histogram: 1 0 0 0 0 0 0 0 0 0
Neighs:        0.00000 ave           0 max           0 min
Histogram: 1 0 0 0 0 0 0 0 0 0

Total # of neighbors = 0
Ave neighs/atom = 0.0000000
Ave special neighs/atom = 6.0000000
Neighbor list builds = 0
Dangerous builds = 0
print "$(pe)"
0.00013911456482714341367
run 0
Per MPI rank memory allocation (min/avg/max) = 3.840 | 3.840 | 3.840 Mbytes
Step Temp E_pair E_mol TotEng Press 
     166 0.00010006834            0 0.00013911456 0.00022488743 -0.00028855243 
Loop time of 5e-06 on 1 procs for 0 steps with 7 atoms

40.0% CPU use with 1 MPI tasks x no OpenMP threads

MPI task timing breakdown:
Section |  min time  |  avg time  |  max time  |%varavg| %total
---------------------------------------------------------------
Pair    | 0          | 0          | 0          |   0.0 |  0.00
Bond    | 0          | 0          | 0          |   0.0 |  0.00
Neigh   | 0          | 0          | 0          |   0.0 |  0.00
Comm    | 0          | 0          | 0          |   0.0 |  0.00
Output  | 0          | 0          | 0          |   0.0 |  0.00
Modify  | 0          | 0          | 0          |   0.0 |  0.00
Other   |            | 5e-06      |            |       |100.00

Nlocal:        7.00000 ave           7 max           7 min
Histogram: 1 0 0 0 0 0 0 0 0 0
Nghost:        0.00000 ave           0 max           0 min
Histogram: 1 0 0 0 0 0 0 0 0 0
Neighs:        0.00000 ave           0 max           0 min
Histogram: 1 0 0 0 0 0 0 0 0 0

Total # of neighbors = 0
Ave neighs/atom = 0.0000000
Ave special neighs/atom = 6.0000000
Neighbor list builds = 0
Dangerous builds = 0
print "$(ke)"
8.57728624426891417e-05
info system
info system
info system
info system
print "$(x[1])"
0.99667255336135651689
print "$(y[1])"
0.0021593252767432009713
info system
info system
print "$(x[2])"
0.0055920382793022780504
print "$(y[2])"
0.0014703205097297137368
info system
info system
print "$(x[3])"
-0.4586822846160262257
print "$(y[3])"
0.86683705937134836184
info system
info system
print "$(x[4])"
0.55521649854828325488
print "$(y[4])"
0.75544478562596450999
info system
info system
print "$(x[5])"
1.5560447068467562204
print "$(y[5])"
0.83647926712061737575
info system
info system
print "$(x[6])"
0.35109848036107232927
print "$(y[6])"
0.1760090361562600958
info system
info system
print "$(x[7])"
0.34686021608289313578
print "$(y[7])"
0.72204580654363903491
info system
info system
info system
info system
print "$(x[1])"
0.99667255336135651689
print "$(y[1])"
0.0021593252767432009713
info system
info system
print "$(x[2])"
0.0055920382793022780504
print "$(y[2])"
0.0014703205097297137368
info system
info system
print "$(x[3])"
-0.4586822846160262257
print "$(y[3])"
0.86683705937134836184
info system
info system
print "$(x[4])"
0.55521649854828325488
print "$(y[4])"
0.75544478562596450999
info system
info system
print "$(x[5])"
1.5560447068467562204
print "$(y[5])"
0.83647926712061737575
info system
info system
print "$(x[6])"
0.35109848036107232927
print "$(y[6])"
0.1760090361562600958
info system
info system
print "$(x[7])"
0.34686021608289313578
print "$(y[7])"
0.72204580654363903491
info system
info system
info system
info system
print "$(x[1])"
0.99667255336135651689
print "$(y[1])"
0.0021593252767432009713
print "$(x[1])"
0.99667255336135651689
print "$(y[1])"
0.0021593252767432009713
print "$(x[2])"
0.0055920382793022780504
print "$(y[2])"
0.0014703205097297137368
print "$(x[2])"
0.0055920382793022780504
print "$(y[2])"
0.0014703205097297137368
print "$(x[3])"
-0.4586822846160262257
print "$(y[3])"
0.86683705937134836184
print "$(x[3])"
-0.4586822846160262257
print "$(y[3])"
0.86683705937134836184
print "$(x[1])"
0.99667255336135651689
print "$(y[1])"
0.0021593252767432009713
print "$(x[1])"
0.99667255336135651689
print "$(y[1])"
0.0021593252767432009713
print "$(x[2])"
0.0055920382793022780504
print "$(y[2])"
0.0014703205097297137368
print "$(x[2])"
0.0055920382793022780504
print "$(y[2])"
0.0014703205097297137368
print "$(x[4])"
0.55521649854828325488
print "$(y[4])"
0.75544478562596450999
print "$(x[4])"
0.55521649854828325488
print "$(y[4])"
0.75544478562596450999
print "$(x[1])"
0.99667255336135651689
print "$(y[1])"
0.0021593252767432009713
print "$(x[1])"
0.99667255336135651689
print "$(y[1])"
0.0021593252767432009713
print "$(x[2])"
0.0055920382793022780504
print "$(y[2])"
0.0014703205097297137368
print "$(x[2])"
0.0055920382793022780504
print "$(y[2])"
0.0014703205097297137368
print "$(x[5])"
1.5560447068467562204
print "$(y[5])"
0.83647926712061737575
print "$(x[5])"
1.5560447068467562204
print "$(y[5])"
0.83647926712061737575
print "$(x[1])"
0.99667255336135651689
print "$(y[1])"
0.0021593252767432009713
print "$(x[1])"
0.99667255336135651689
print "$(y[1])"
0.0021593252767432009713
print "$(x[2])"
0.0055920382793022780504
print "$(y[2])"
0.0014703205097297137368
print "$(x[2])"
0.0055920382793022780504
print "$(y[2])"
0.0014703205097297137368
print "$(x[6])"
0.35109848036107232927
print "$(y[6])"
0.1760090361562600958
print "$(x[6])"
0.35109848036107232927
print "$(y[6])"
0.1760090361562600958
print "$(x[1])"
0.99667255336135651689
print "$(y[1])"
0.0021593252767432009713
print "$(x[1])"
0.99667255336135651689
print "$(y[1])"
0.0021593252767432009713
print "$(x[2])"
0.0055920382793022780504
print "$(y[2])"
0.0014703205097297137368
print "$(x[2])"
0.0055920382793022780504
print "$(y[2])"
0.0014703205097297137368
print "$(x[7])"
0.34686021608289313578
print "$(y[7])"
0.72204580654363903491
print "$(x[7])"
0.34686021608289313578
print "$(y[7])"
0.72204580654363903491
print "$(x[1])"
0.99667255336135651689
print "$(y[1])"
0.0021593252767432009713
print "$(x[1])"
0.99667255336135651689
print "$(y[1])"
0.0021593252767432009713
print "$(x[3])"
-0.4586822846160262257
print "$(y[3])"
0.86683705937134836184
print "$(x[3])"
-0.4586822846160262257
print "$(y[3])"
0.86683705937134836184
print "$(x[4])"
0.55521649854828325488
print "$(y[4])"
0.75544478562596450999
print "$(x[4])"
0.55521649854828325488
print "$(y[4])"
0.75544478562596450999
print "$(x[1])"
0.99667255336135651689
print "$(y[1])"
0.0021593252767432009713
print "$(x[1])"
0.99667255336135651689
print "$(y[1])"
0.0021593252767432009713
print "$(x[3])"
-0.4586822846160262257
print "$(y[3])"
0.86683705937134836184
print "$(x[3])"
-0.4586822846160262257
print "$(y[3])"
0.86683705937134836184
print "$(x[5])"
1.5560447068467562204
print "$(y[5])"
0.83647926712061737575
print "$(x[5])"
1.5560447068467562204
print "$(y[5])"
0.83647926712061737575
print "$(x[1])"
0.99667255336135651689
print "$(y[1])"
0.0021593252767432009713
print "$(x[1])"
0.99667255336135651689
print "$(y[1])"
0.0021593252767432009713
print "$(x[3])"
-0.4586822846160262257
print "$(y[3])"
0.86683705937134836184
print "$(x[3])"
-0.4586822846160262257
print "$(y[3])"
0.86683705937134836184
print "$(x[6])"
0.35109848036107232927
print "$(y[6])"
0.1760090361562600958
print "$(x[6])"
0.35109848036107232927
print "$(y[6])"
0.1760090361562600958
print "$(x[1])"
0.99667255336135651689
print "$(y[1])"
0.0021593252767432009713
print "$(x[1])"
0.99667255336135651689
print "$(y[1])"
0.0021593252767432009713
print "$(x[3])"
-0.4586822846160262257
print "$(y[3])"
0.86683705937134836184
print "$(x[3])"
-0.4586822846160262257
print "$(y[3])"
0.86683705937134836184
print "$(x[7])"
0.34686021608289313578
print "$(y[7])"
0.72204580654363903491
print "$(x[7])"
0.34686021608289313578
print "$(y[7])"
0.72204580654363903491
print "$(x[1])"
0.99667255336135651689
print "$(y[1])"
0.0021593252767432009713
print "$(x[1])"
0.99667255336135651689
print "$(y[1])"
0.0021593252767432009713
print "$(x[4])"
0.55521649854828325488
print "$(y[4])"
0.75544478562596450999
print "$(x[4])"
0.55521649854828325488
print "$(y[4])"
0.75544478562596450999
print "$(x[5])"
1.5560447068467562204
print "$(y[5])"
0.83647926712061737575
print "$(x[5])"
1.5560447068467562204
print "$(y[5])"
0.83647926712061737575
print "$(x[1])"
0.99667255336135651689
print "$(y[1])"
0.0021593252767432009713
print "$(x[1])"
0.99667255336135651689
print "$(y[1])"
0.0021593252767432009713
print "$(x[4])"
0.55521649854828325488
print "$(y[4])"
0.75544478562596450999
print "$(x[4])"
0.55521649854828325488
print "$(y[4])"
0.75544478562596450999
print "$(x[6])"
0.35109848036107232927
print "$(y[6])"
0.1760090361562600958
print "$(x[6])"
0.35109848036107232927
print "$(y[6])"
0.1760090361562600958
print "$(x[1])"
0.99667255336135651689
print "$(y[1])"
0.0021593252767432009713
print "$(x[1])"
0.99667255336135651689
print "$(y[1])"
0.0021593252767432009713
print "$(x[4])"
0.55521649854828325488
print "$(y[4])"
0.75544478562596450999
print "$(x[4])"
0.55521649854828325488
print "$(y[4])"
0.75544478562596450999
print "$(x[7])"
0.34686021608289313578
print "$(y[7])"
0.72204580654363903491
print "$(x[7])"
0.34686021608289313578
print "$(y[7])"
0.72204580654363903491
print "$(x[1])"
0.99667255336135651689
print "$(y[1])"
0.0021593252767432009713
print "$(x[1])"
0.99667255336135651689
print "$(y[1])"
0.0021593252767432009713
print "$(x[5])"
1.5560447068467562204
print "$(y[5])"
0.83647926712061737575
print "$(x[5])"
1.5560447068467562204
print "$(y[5])"
0.83647926712061737575
print "$(x[6])"
0.35109848036107232927
print "$(y[6])"
0.1760090361562600958
print "$(x[6])"
0.35109848036107232927
print "$(y[6])"
0.1760090361562600958
print "$(x[1])"
0.99667255336135651689
print "$(y[1])"
0.0021593252767432009713
print "$(x[1])"
0.99667255336135651689
print "$(y[1])"
0.0021593252767432009713
print "$(x[5])"
1.5560447068467562204
print "$(y[5])"
0.83647926712061737575
print "$(x[5])"
1.5560447068467562204
print "$(y[5])"
0.83647926712061737575
print "$(x[7])"
0.34686021608289313578
print "$(y[7])"
0.72204580654363903491
print "$(x[7])"
0.34686021608289313578
print "$(y[7])"
0.72204580654363903491
print "$(x[1])"
0.99667255336135651689
print "$(y[1])"
0.0021593252767432009713
print "$(x[1])"
0.99667255336135651689
print "$(y[1])"
0.0021593252767432009713
print "$(x[6])"
0.35109848036107232927
print "$(y[6])"
0.1760090361562600958
print "$(x[6])"
0.35109848036107232927
print "$(y[6])"
0.1760090361562600958
print "$(x[7])"
0.34686021608289313578
print "$(y[7])"
0.72204580654363903491
print "$(x[7])"
0.34686021608289313578
print "$(y[7])"
0.72204580654363903491
print "$(x[2])"
0.0055920382793022780504
print "$(y[2])"
0.0014703205097297137368
print "$(x[2])"
0.0055920382793022780504
print "$(y[2])"
0.0014703205097297137368
print "$(x[3])"
-0.4586822846160262257
print "$(y[3])"
0.86683705937134836184
print "$(x[3])"
-0.4586822846160262257
print "$(y[3])"
0.86683705937134836184
print "$(x[4])"
0.55521649854828325488
print "$(y[4])"
0.75544478562596450999
print "$(x[4])"
0.55521649854828325488
print "$(y[4])"
0.75544478562596450999
print "$(x[2])"
0.0055920382793022780504
print "$(y[2])"
0.0014703205097297137368
print "$(x[2])"
0.0055920382793022780504
print "$(y[2])"
0.0014703205097297137368
print "$(x[3])"
-0.4586822846160262257
print "$(y[3])"
0.86683705937134836184
print "$(x[3])"
-0.4586822846160262257
print "$(y[3])"
0.86683705937134836184
print "$(x[5])"
1.5560447068467562204
print "$(y[5])"
0.83647926712061737575
print "$(x[5])"
1.5560447068467562204
print "$(y[5])"
0.83647926712061737575
print "$(x[2])"
0.0055920382793022780504
print "$(y[2])"
0.0014703205097297137368
print "$(x[2])"
0.0055920382793022780504
print "$(y[2])"
0.0014703205097297137368
print "$(x[3])"
-0.4586822846160262257
print "$(y[3])"
0.86683705937134836184
print "$(x[3])"
-0.4586822846160262257
print "$(y[3])"
0.86683705937134836184
print "$(x[6])"
0.35109848036107232927
print "$(y[6])"
0.1760090361562600958
print "$(x[6])"
0.35109848036107232927
print "$(y[6])"
0.1760090361562600958
print "$(x[2])"
0.0055920382793022780504
print "$(y[2])"
0.0014703205097297137368
print "$(x[2])"
0.0055920382793022780504
print "$(y[2])"
0.0014703205097297137368
print "$(x[3])"
-0.4586822846160262257
print "$(y[3])"
0.86683705937134836184
print "$(x[3])"
-0.4586822846160262257
print "$(y[3])"
0.86683705937134836184
print "$(x[7])"
0.34686021608289313578
print "$(y[7])"
0.72204580654363903491
print "$(x[7])"
0.34686021608289313578
print "$(y[7])"
0.72204580654363903491
print "$(x[2])"
0.0055920382793022780504
print "$(y[2])"
0.0014703205097297137368
print "$(x[2])"
0.0055920382793022780504
print "$(y[2])"
0.0014703205097297137368
print "$(x[4])"
0.55521649854828325488
print "$(y[4])"
0.75544478562596450999
print "$(x[4])"
0.55521649854828325488
print "$(y[4])"
0.75544478562596450999
print "$(x[5])"
1.5560447068467562204
print "$(y[5])"
0.83647926712061737575
print "$(x[5])"
1.5560447068467562204
print "$(y[5])"
0.83647926712061737575
print "$(x[2])"
0.0055920382793022780504
print "$(y[2])"
0.0014703205097297137368
print "$(x[2])"
0.0055920382793022780504
print "$(y[2])"
0.0014703205097297137368
print "$(x[4])"
0.55521649854828325488
print "$(y[4])"
0.75544478562596450999
print "$(x[4])"
0.55521649854828325488
print "$(y[4])"
0.75544478562596450999
print "$(x[6])"
0.35109848036107232927
print "$(y[6])"
0.1760090361562600958
print "$(x[6])"
0.35109848036107232927
print "$(y[6])"
0.1760090361562600958
print "$(x[2])"
0.0055920382793022780504
print "$(y[2])"
0.0014703205097297137368
print "$(x[2])"
0.0055920382793022780504
print "$(y[2])"
0.0014703205097297137368
print "$(x[4])"
0.55521649854828325488
print "$(y[4])"
0.75544478562596450999
print "$(x[4])"
0.55521649854828325488
print "$(y[4])"
0.75544478562596450999
print "$(x[7])"
0.34686021608289313578
print "$(y[7])"
0.72204580654363903491
print "$(x[7])"
0.34686021608289313578
print "$(y[7])"
0.72204580654363903491
print "$(x[2])"
0.0055920382793022780504
print "$(y[2])"
0.0014703205097297137368
print "$(x[2])"
0.0055920382793022780504
print "$(y[2])"
0.0014703205097297137368
print "$(x[5])"
1.5560447068467562204
print "$(y[5])"
0.83647926712061737575
print "$(x[5])"
1.5560447068467562204
print "$(y[5])"
0.83647926712061737575
print "$(x[6])"
0.35109848036107232927
print "$(y[6])"
0.1760090361562600958
print "$(x[6])"
0.35109848036107232927
print "$(y[6])"
0.1760090361562600958
print "$(x[2])"
0.0055920382793022780504
print "$(y[2])"
0.0014703205097297137368
print "$(x[2])"
0.0055920382793022780504
print "$(y[2])"
0.0014703205097297137368
print "$(x[5])"
1.5560447068467562204
print "$(y[5])"
0.83647926712061737575
print "$(x[5])"
1.5560447068467562204
print "$(y[5])"
0.83647926712061737575
print "$(x[7])"
0.34686021608289313578
print "$(y[7])"
0.72204580654363903491
print "$(x[7])"
0.34686021608289313578
print "$(y[7])"
0.72204580654363903491
print "$(x[2])"
0.0055920382793022780504
print "$(y[2])"
0.0014703205097297137368
print "$(x[2])"
0.0055920382793022780504
print "$(y[2])"
0.0014703205097297137368
print "$(x[6])"
0.35109848036107232927
print "$(y[6])"
0.1760090361562600958
print "$(x[6])"
0.35109848036107232927
print "$(y[6])"
0.1760090361562600958
print "$(x[7])"
0.34686021608289313578
print "$(y[7])"
0.72204580654363903491
print "$(x[7])"
0.34686021608289313578
print "$(y[7])"
0.72204580654363903491
print "$(x[3])"
-0.4586822846160262257
print "$(y[3])"
0.86683705937134836184
print "$(x[3])"
-0.4586822846160262257
print "$(y[3])"
0.86683705937134836184
print "$(x[4])"
0.55521649854828325488
print "$(y[4])"
0.75544478562596450999
print "$(x[4])"
0.55521649854828325488
print "$(y[4])"
0.75544478562596450999
print "$(x[5])"
1.5560447068467562204
print "$(y[5])"
0.83647926712061737575
print "$(x[5])"
1.5560447068467562204
print "$(y[5])"
0.83647926712061737575
print "$(x[3])"
-0.4586822846160262257
print "$(y[3])"
0.86683705937134836184
print "$(x[3])"
-0.4586822846160262257
print "$(y[3])"
0.86683705937134836184
print "$(x[4])"
0.55521649854828325488
print "$(y[4])"
0.75544478562596450999
print "$(x[4])"
0.55521649854828325488
print "$(y[4])"
0.75544478562596450999
print "$(x[6])"
0.35109848036107232927
print "$(y[6])"
0.1760090361562600958
print "$(x[6])"
0.35109848036107232927
print "$(y[6])"
0.1760090361562600958
print "$(x[3])"
-0.4586822846160262257
print "$(y[3])"
0.86683705937134836184
print "$(x[3])"
-0.4586822846160262257
print "$(y[3])"
0.86683705937134836184
print "$(x[4])"
0.55521649854828325488
print "$(y[4])"
0.75544478562596450999
print "$(x[4])"
0.55521649854828325488
print "$(y[4])"
0.75544478562596450999
print "$(x[7])"
0.34686021608289313578
print "$(y[7])"
0.72204580654363903491
print "$(x[7])"
0.34686021608289313578
print "$(y[7])"
0.72204580654363903491
print "$(x[3])"
-0.4586822846160262257
print "$(y[3])"
0.86683705937134836184
print "$(x[3])"
-0.4586822846160262257
print "$(y[3])"
0.86683705937134836184
print "$(x[5])"
1.5560447068467562204
print "$(y[5])"
0.83647926712061737575
print "$(x[5])"
1.5560447068467562204
print "$(y[5])"
0.83647926712061737575
print "$(x[6])"
0.35109848036107232927
print "$(y[6])"
0.1760090361562600958
print "$(x[6])"
0.35109848036107232927
print "$(y[6])"
0.1760090361562600958
print "$(x[3])"
-0.4586822846160262257
print "$(y[3])"
0.86683705937134836184
print "$(x[3])"
-0.4586822846160262257
print "$(y[3])"
0.86683705937134836184
print "$(x[5])"
1.5560447068467562204
print "$(y[5])"
0.83647926712061737575
print "$(x[5])"
1.5560447068467562204
print "$(y[5])"
0.83647926712061737575
print "$(x[7])"
0.34686021608289313578
print "$(y[7])"
0.72204580654363903491
print "$(x[7])"
0.34686021608289313578
print "$(y[7])"
0.72204580654363903491
print "$(x[3])"
-0.4586822846160262257
print "$(y[3])"
0.86683705937134836184
print "$(x[3])"
-0.4586822846160262257
print "$(y[3])"
0.86683705937134836184
print "$(x[6])"
0.35109848036107232927
print "$(y[6])"
0.1760090361562600958
print "$(x[6])"
0.35109848036107232927
print "$(y[6])"
0.1760090361562600958
print "$(x[7])"
0.34686021608289313578
print "$(y[7])"
0.72204580654363903491
print "$(x[7])"
0.34686021608289313578
print "$(y[7])"
0.72204580654363903491
print "$(x[4])"
0.55521649854828325488
print "$(y[4])"
0.75544478562596450999
print "$(x[4])"
0.55521649854828325488
print "$(y[4])"
0.75544478562596450999
print "$(x[5])"
1.5560447068467562204
print "$(y[5])"
0.83647926712061737575
print "$(x[5])"
1.5560447068467562204
print "$(y[5])"
0.83647926712061737575
print "$(x[6])"
0.35109848036107232927
print "$(y[6])"
0.1760090361562600958
print "$(x[6])"
0.35109848036107232927
print "$(y[6])"
0.1760090361562600958
print "$(x[4])"
0.55521649854828325488
print "$(y[4])"
0.75544478562596450999
print "$(x[4])"
0.55521649854828325488
print "$(y[4])"
0.75544478562596450999
print "$(x[5])"
1.5560447068467562204
print "$(y[5])"
0.83647926712061737575
print "$(x[5])"
1.5560447068467562204
print "$(y[5])"
0.83647926712061737575
print "$(x[7])"
0.34686021608289313578
print "$(y[7])"
0.72204580654363903491
print "$(x[7])"
0.34686021608289313578
print "$(y[7])"
0.72204580654363903491
print "$(x[4])"
0.55521649854828325488
print "$(y[4])"
0.75544478562596450999
print "$(x[4])"
0.55521649854828325488
print "$(y[4])"
0.75544478562596450999
print "$(x[6])"
0.35109848036107232927
print "$(y[6])"
0.1760090361562600958
print "$(x[6])"
0.35109848036107232927
print "$(y[6])"
0.1760090361562600958
print "$(x[7])"
0.34686021608289313578
print "$(y[7])"
0.72204580654363903491
print "$(x[7])"
0.34686021608289313578
print "$(y[7])"
0.72204580654363903491
print "$(x[5])"
1.5560447068467562204
print "$(y[5])"
0.83647926712061737575
print "$(x[5])"
1.5560447068467562204
print "$(y[5])"
0.83647926712061737575
print "$(x[6])"
0.35109848036107232927
print "$(y[6])"
0.1760090361562600958
print "$(x[6])"
0.35109848036107232927
print "$(y[6])"
0.1760090361562600958
print "$(x[7])"
0.34686021608289313578
print "$(y[7])"
0.72204580654363903491
print "$(x[7])"
0.34686021608289313578
print "$(y[7])"
0.72204580654363903491
run 166
Per MPI rank memory allocation (min/avg/max) = 3.840 | 3.840 | 3.840 Mbytes
Step Temp E_pair E_mol TotEng Press 
     166 0.00010006834            0 0.00013911456 0.00022488743 -0.00028855243 
     332 0.00032480537            0 0.0001649698 0.0004433744 -6.0894142e-05 
Loop time of 0.000713 on 1 procs for 166 steps with 7 atoms

Performance: 120693407.920 tau/day, 232819.074 timesteps/s
86.7% CPU use with 1 MPI tasks x no OpenMP threads

MPI task timing breakdown:
Section |  min time  |  avg time  |  max time  |%varavg| %total
---------------------------------------------------------------
Pair    | 0          | 0          | 0          |   0.0 |  0.00
Bond    | 0.000158   | 0.000158   | 0.000158   |   0.0 | 22.16
Neigh   | 0          | 0          | 0          |   0.0 |  0.00
Comm    | 8.5e-05    | 8.5e-05    | 8.5e-05    |   0.0 | 11.92
Output  | 3.9e-05    | 3.9e-05    | 3.9e-05    |   0.0 |  5.47
Modify  | 0.000253   | 0.000253   | 0.000253   |   0.0 | 35.48
Other   |            | 0.000178   |            |       | 24.96

Nlocal:        7.00000 ave           7 max           7 min
Histogram: 1 0 0 0 0 0 0 0 0 0
Nghost:        0.00000 ave           0 max           0 min
Histogram: 1 0 0 0 0 0 0 0 0 0
Neighs:        0.00000 ave           0 max           0 min
Histogram: 1 0 0 0 0 0 0 0 0 0

Total # of neighbors = 0
Ave neighs/atom = 0.0000000
Ave special neighs/atom = 6.0000000
Neighbor list builds = 0
Dangerous builds = 0
run 0
Per MPI rank memory allocation (min/avg/max) = 3.840 | 3.840 | 3.840 Mbytes
Step Temp E_pair E_mol TotEng Press 
     332 0.00032434637            0 0.0001649698 0.00044298097 -6.0913267e-05 
Loop time of 6e-06 on 1 procs for 0 steps with 7 atoms

33.3% CPU use with 1 MPI tasks x no OpenMP threads

MPI task timing breakdown:
Section |  min time  |  avg time  |  max time  |%varavg| %total
---------------------------------------------------------------
Pair    | 0          | 0          | 0          |   0.0 |  0.00
Bond    | 0          | 0          | 0          |   0.0 |  0.00
Neigh   | 0          | 0          | 0          |   0.0 |  0.00
Comm    | 0          | 0          | 0          |   0.0 |  0.00
Output  | 0          | 0          | 0          |   0.0 |  0.00
Modify  | 0          | 0          | 0          |   0.0 |  0.00
Other   |            | 6e-06      |            |       |100.00

Nlocal:        7.00000 ave           7 max           7 min
Histogram: 1 0 0 0 0 0 0 0 0 0
Nghost:        0.00000 ave           0 max           0 min
Histogram: 1 0 0 0 0 0 0 0 0 0
Neighs:        0.00000 ave           0 max           0 min
Histogram: 1 0 0 0 0 0 0 0 0 0

Total # of neighbors = 0
Ave neighs/atom = 0.0000000
Ave special neighs/atom = 6.0000000
Neighbor list builds = 0
Dangerous builds = 0
print "$(pe)"
0.00016496980035599705214
run 0
Per MPI rank memory allocation (min/avg/max) = 3.840 | 3.840 | 3.840 Mbytes
Step Temp E_pair E_mol TotEng Press 
     332 0.00032434637            0 0.0001649698 0.00044298097 -6.0913267e-05 
Loop time of 7e-06 on 1 procs for 0 steps with 7 atoms

42.9% CPU use with 1 MPI tasks x no OpenMP threads

MPI task timing breakdown:
Section |  min time  |  avg time  |  max time  |%varavg| %total
---------------------------------------------------------------
Pair    | 0          | 0          | 0          |   0.0 |  0.00
Bond    | 0          | 0          | 0          |   0.0 |  0.00
Neigh   | 0          | 0          | 0          |   0.0 |  0.00
Comm    | 0          | 0          | 0          |   0.0 |  0.00
Output  | 0          | 0          | 0          |   0.0 |  0.00
Modify  | 0          | 0          | 0          |   0.0 |  0.00
Other   |            | 7e-06      |            |       |100.00

Nlocal:        7.00000 ave           7 max           7 min
Histogram: 1 0 0 0 0 0 0 0 0 0
Nghost:        0.00000 ave           0 max           0 min
Histogram: 1 0 0 0 0 0 0 0 0 0
Neighs:        0.00000 ave           0 max           0 min
Histogram: 1 0 0 0 0 0 0 0 0 0

Total # of neighbors = 0
Ave neighs/atom = 0.0000000
Ave special neighs/atom = 6.0000000
Neighbor list builds = 0
Dangerous builds = 0
print "$(ke)"
0.00027801117262872250633
info system
info system
info system
info system
print "$(x[1])"
1.0136035361349395867
print "$(y[1])"
-0.0048604679804514945574
info system
info system
print "$(x[2])"
0.0045246469567125253974
print "$(y[2])"
-0.0070493524441337098926
info system
info system
print "$(x[3])"
-0.43941010078166692354
print "$(y[3])"
0.86790839064597169461
info system
info system
print "$(x[4])"
0.54752648606737097658
print "$(y[4])"
0.75443863175933134624
info system
info system
print "$(x[5])"
1.5521284385510971671
print "$(y[5])"
0.84100280476408006969
info system
info system
print "$(x[6])"
0.3641476935989100272
print "$(y[6])"
0.18917243935550745459
info system
info system
print "$(x[7])"
0.35541002246382236152
print "$(y[7])"
0.72657226808640862359
info system
info system
info system
info system
print "$(x[1])"
1.0136035361349395867
print "$(y[1])"
-0.0048604679804514945574
info system
info system
print "$(x[2])"
0.0045246469567125253974
print "$(y[2])"
-0.0070493524441337098926
info system
info system
print "$(x[3])"
-0.43941010078166692354
print "$(y[3])"
0.86790839064597169461
info system
info system
print "$(x[4])"
0.54752648606737097658
print "$(y[4])"
0.75443863175933134624
info system
info system
print "$(x[5])"
1.5521284385510971671
print "$(y[5])"
0.84100280476408006969
info system
info system
print "$(x[6])"
0.3641476935989100272
print "$(y[6])"
0.18917243935550745459
info system
info system
print "$(x[7])"
0.35541002246382236152
print "$(y[7])"
0.72657226808640862359
info system
info system
info system
info system
print "$(x[1])"
1.0136035361349395867
print "$(y[1])"
-0.0048604679804514945574
print "$(x[1])"
1.0136035361349395867
print "$(y[1])"
-0.0048604679804514945574
print "$(x[2])"
0.0045246469567125253974
print "$(y[2])"
-0.0070493524441337098926
print "$(x[2])"
0.0045246469567125253974
print "$(y[2])"
-0.0070493524441337098926
print "$(x[3])"
-0.43941010078166692354
print "$(y[3])"
0.86790839064597169461
print "$(x[3])"
-0.43941010078166692354
print "$(y[3])"
0.86790839064597169461
print "$(x[1])"
1.0136035361349395867
print "$(y[1])"
-0.0048604679804514945574
print "$(x[1])"
1.0136035361349395867
print "$(y[1])"
-0.0048604679804514945574
print "$(x[2])"
0.0045246469567125253974
print "$(y[2])"
-0.0070493524441337098926
print "$(x[2])"
0.0045246469567125253974
print "$(y[2])"
-0.0070493524441337098926
print "$(x[4])"
0.54752648606737097658
print "$(y[4])"
0.75443863175933134624
print "$(x[4])"
0.54752648606737097658
print "$(y[4])"
0.75443863175933134624
print "$(x[1])"
1.0136035361349395867
print "$(y[1])"
-0.0048604679804514945574
print "$(x[1])"
1.0136035361349395867
print "$(y[1])"
-0.0048604679804514945574
print "$(x[2])"
0.0045246469567125253974
print "$(y[2])"
-0.0070493524441337098926
print "$(x[2])"
0.0045246469567125253974
print "$(y[2])"
-0.0070493524441337098926
print "$(x[5])"
1.5521284385510971671
print "$(y[5])"
0.84100280476408006969
print "$(x[5])"
1.5521284385510971671
print "$(y[5])"
0.84100280476408006969
print "$(x[1])"
1.0136035361349395867
print "$(y[1])"
-0.0048604679804514945574
print "$(x[1])"
1.0136035361349395867
print "$(y[1])"
-0.0048604679804514945574
print "$(x[2])"
0.0045246469567125253974
print "$(y[2])"
-0.0070493524441337098926
print "$(x[2])"
0.0045246469567125253974
print "$(y[2])"
-0.0070493524441337098926
print "$(x[6])"
0.3641476935989100272
print "$(y[6])"
0.18917243935550745459
print "$(x[6])"
0.3641476935989100272
print "$(y[6])"
0.18917243935550745459
print "$(x[1])"
1.0136035361349395867
print "$(y[1])"
-0.0048604679804514945574
print "$(x[1])"
1.0136035361349395867
print "$(y[1])"
-0.0048604679804514945574
print "$(x[2])"
0.0045246469567125253974
print "$(y[2])"
-0.0070493524441337098926
print "$(x[2])"
0.0045246469567125253974
print "$(y[2])"
-0.0070493524441337098926
print "$(x[7])"
0.35541002246382236152
print "$(y[7])"
0.72657226808640862359
print "$(x[7])"
0.35541002246382236152
print "$(y[7])"
0.72657226808640862359
print "$(x[1])"
1.0136035361349395867
print "$(y[1])"
-0.0048604679804514945574
print "$(x[1])"
1.0136035361349395867
print "$(y[1])"
-0.0048604679804514945574
print "$(x[3])"
-0.43941010078166692354
print "$(y[3])"
0.86790839064597169461
print "$(x[3])"
-0.43941010078166692354
print "$(y[3])"
0.86790839064597169461
print "$(x[4])"
0.54752648606737097658
print "$(y[4])"
0.75443863175933134624
print "$(x[4])"
0.54752648606737097658
print "$(y[4])"
0.75443863175933134624
print "$(x[1])"
1.0136035361349395867
print "$(y[1])"
-0.0048604679804514945574
print "$(x[1])"
1.0136035361349395867
print "$(y[1])"
-0.0048604679804514945574
print "$(x[3])"
-0.43941010078166692354
print "$(y[3])"
0.86790839064597169461
print "$(x[3])"
-0.43941010078166692354
print "$(y[3])"
0.86790839064597169461
print "$(x[5])"
1.5521284385510971671
print "$(y[5])"
0.84100280476408006969
print "$(x[5])"
1.5521284385510971671
print "$(y[5])"
0.84100280476408006969
print "$(x[1])"
1.0136035361349395867
print "$(y[1])"
-0.0048604679804514945574
print "$(x[1])"
1.0136035361349395867
print "$(y[1])"
-0.0048604679804514945574
print "$(x[3])"
-0.43941010078166692354
print "$(y[3])"
0.86790839064597169461
print "$(x[3])"
-0.43941010078166692354
print "$(y[3])"
0.86790839064597169461
print "$(x[6])"
0.3641476935989100272
print "$(y[6])"
0.18917243935550745459
print "$(x[6])"
0.3641476935989100272
print "$(y[6])"
0.18917243935550745459
print "$(x[1])"
1.0136035361349395867
print "$(y[1])"
-0.0048604679804514945574
print "$(x[1])"
1.0136035361349395867
print "$(y[1])"
-0.0048604679804514945574
print "$(x[3])"
-0.43941010078166692354
print "$(y[3])"
0.86790839064597169461
print "$(x[3])"
-0.43941010078166692354
print "$(y[3])"
0.86790839064597169461
print "$(x[7])"
0.35541002246382236152
print "$(y[7])"
0.72657226808640862359
print "$(x[7])"
0.35541002246382236152
print "$(y[7])"
0.72657226808640862359
print "$(x[1])"
1.0136035361349395867
print "$(y[1])"
-0.0048604679804514945574
print "$(x[1])"
1.0136035361349395867
print "$(y[1])"
-0.0048604679804514945574
print "$(x[4])"
0.54752648606737097658
print "$(y[4])"
0.75443863175933134624
print "$(x[4])"
0.54752648606737097658
print "$(y[4])"
0.75443863175933134624
print "$(x[5])"
1.5521284385510971671
print "$(y[5])"
0.84100280476408006969
print "$(x[5])"
1.5521284385510971671
print "$(y[5])"
0.84100280476408006969
print "$(x[1])"
1.0136035361349395867
print "$(y[1])"
-0.0048604679804514945574
print "$(x[1])"
1.0136035361349395867
print "$(y[1])"
-0.0048604679804514945574
print "$(x[4])"
0.54752648606737097658
print "$(y[4])"
0.75443863175933134624
print "$(x[4])"
0.54752648606737097658
print "$(y[4])"
0.75443863175933134624
print "$(x[6])"
0.3641476935989100272
print "$(y[6])"
0.18917243935550745459
print "$(x[6])"
0.3641476935989100272
print "$(y[6])"
0.18917243935550745459
print "$(x[1])"
1.0136035361349395867
print "$(y[1])"
-0.0048604679804514945574
print "$(x[1])"
1.0136035361349395867
print "$(y[1])"
-0.0048604679804514945574
print "$(x[4])"
0.54752648606737097658
print "$(y[4])"
0.75443863175933134624
print "$(x[4])"
0.54752648606737097658
print "$(y[4])"
0.75443863175933134624
print "$(x[7])"
0.35541002246382236152
print "$(y[7])"
0.72657226808640862359
print "$(x[7])"
0.35541002246382236152
print "$(y[7])"
0.72657226808640862359
print "$(x[1])"
1.0136035361349395867
print "$(y[1])"
-0.0048604679804514945574
print "$(x[1])"
1.0136035361349395867
print "$(y[1])"
-0.0048604679804514945574
print "$(x[5])"
1.5521284385510971671
print "$(y[5])"
0.84100280476408006969
print "$(x[5])"
1.5521284385510971671
print "$(y[5])"
0.84100280476408006969
print "$(x[6])"
0.3641476935989100272
print "$(y[6])"
0.18917243935550745459
print "$(x[6])"
0.3641476935989100272
print "$(y[6])"
0.18917243935550745459
print "$(x[1])"
1.0136035361349395867
print "$(y[1])"
-0.0048604679804514945574
print "$(x[1])"
1.0136035361349395867
print "$(y[1])"
-0.0048604679804514945574
print "$(x[5])"
1.5521284385510971671
print "$(y[5])"
0.84100280476408006969
print "$(x[5])"
1.5521284385510971671
print "$(y[5])"
0.84100280476408006969
print "$(x[7])"
0.35541002246382236152
print "$(y[7])"
0.72657226808640862359
print "$(x[7])"
0.35541002246382236152
print "$(y[7])"
0.72657226808640862359
print "$(x[1])"
1.0136035361349395867
print "$(y[1])"
-0.0048604679804514945574
print "$(x[1])"
1.0136035361349395867
print "$(y[1])"
-0.0048604679804514945574
print "$(x[6])"
0.3641476935989100272
print "$(y[6])"
0.18917243935550745459
print "$(x[6])"
0.3641476935989100272
print "$(y[6])"
0.18917243935550745459
print "$(x[7])"
0.35541002246382236152
print "$(y[7])"
0.72657226808640862359
print "$(x[7])"
0.35541002246382236152
print "$(y[7])"
0.72657226808640862359
print "$(x[2])"
0.0045246469567125253974
print "$(y[2])"
-0.0070493524441337098926
print "$(x[2])"
0.0045246469567125253974
print "$(y[2])"
-0.0070493524441337098926
print "$(x[3])"
-0.43941010078166692354
print "$(y[3])"
0.86790839064597169461
print "$(x[3])"
-0.43941010078166692354
print "$(y[3])"
0.86790839064597169461
print "$(x[4])"
0.54752648606737097658
print "$(y[4])"
0.75443863175933134624
print "$(x[4])"
0.54752648606737097658
print "$(y[4])"
0.75443863175933134624
print "$(x[2])"
0.0045246469567125253974
print "$(y[2])"
-0.0070493524441337098926
print "$(x[2])"
0.0045246469567125253974
print "$(y[2])"
-0.0070493524441337098926
print "$(x[3])"
-0.43941010078166692354
print "$(y[3])"
0.86790839064597169461
print "$(x[3])"
-0.43941010078166692354
print "$(y[3])"
0.86790839064597169461
print "$(x[5])"
1.5521284385510971671
print "$(y[5])"
0.84100280476408006969
print "$(x[5])"
1.5521284385510971671
print "$(y[5])"
0.84100280476408006969
print "$(x[2])"
0.0045246469567125253974
print "$(y[2])"
-0.0070493524441337098926
print "$(x[2])"
0.0045246469567125253974
print "$(y[2])"
-0.0070493524441337098926
print "$(x[3])"
-0.43941010078166692354
print "$(y[3])"
0.86790839064597169461
print "$(x[3])"
-0.43941010078166692354
print "$(y[3])"
0.86790839064597169461
print "$(x[6])"
0.3641476935989100272
print "$(y[6])"
0.18917243935550745459
print "$(x[6])"
0.3641476935989100272
print "$(y[6])"
0.18917243935550745459
print "$(x[2])"
0.0045246469567125253974
print "$(y[2])"
-0.0070493524441337098926
print "$(x[2])"
0.0045246469567125253974
print "$(y[2])"
-0.0070493524441337098926
print "$(x[3])"
-0.43941010078166692354
print "$(y[3])"
0.86790839064597169461
print "$(x[3])"
-0.43941010078166692354
print "$(y[3])"
0.86790839064597169461
print "$(x[7])"
0.35541002246382236152
print "$(y[7])"
0.72657226808640862359
print "$(x[7])"
0.35541002246382236152
print "$(y[7])"
0.72657226808640862359
print "$(x[2])"
0.0045246469567125253974
print "$(y[2])"
-0.0070493524441337098926
print "$(x[2])"
0.0045246469567125253974
print "$(y[2])"
-0.0070493524441337098926
print "$(x[4])"
0.54752648606737097658
print "$(y[4])"
0.75443863175933134624
print "$(x[4])"
0.54752648606737097658
print "$(y[4])"
0.75443863175933134624
print "$(x[5])"
1.5521284385510971671
print "$(y[5])"
0.84100280476408006969
print "$(x[5])"
1.5521284385510971671
print "$(y[5])"
0.84100280476408006969
print "$(x[2])"
0.0045246469567125253974
print "$(y[2])"
-0.0070493524441337098926
print "$(x[2])"
0.0045246469567125253974
print "$(y[2])"
-0.0070493524441337098926
print "$(x[4])"
0.54752648606737097658
print "$(y[4])"
0.75443863175933134624
print "$(x[4])"
0.54752648606737097658
print "$(y[4])"
0.75443863175933134624
print "$(x[6])"
0.3641476935989100272
print "$(y[6])"
0.18917243935550745459
print "$(x[6])"
0.3641476935989100272
print "$(y[6])"
0.18917243935550745459
print "$(x[2])"
0.0045246469567125253974
print "$(y[2])"
-0.0070493524441337098926
print "$(x[2])"
0.0045246469567125253974
print "$(y[2])"
-0.0070493524441337098926
print "$(x[4])"
0.54752648606737097658
print "$(y[4])"
0.75443863175933134624
print "$(x[4])"
0.54752648606737097658
print "$(y[4])"
0.75443863175933134624
print "$(x[7])"
0.35541002246382236152
print "$(y[7])"
0.72657226808640862359
print "$(x[7])"
0.35541002246382236152
print "$(y[7])"
0.72657226808640862359
print "$(x[2])"
0.0045246469567125253974
print "$(y[2])"
-0.0070493524441337098926
print "$(x[2])"
0.0045246469567125253974
print "$(y[2])"
-0.0070493524441337098926
print "$(x[5])"
1.5521284385510971671
print "$(y[5])"
0.84100280476408006969
print "$(x[5])"
1.5521284385510971671
print "$(y[5])"
0.84100280476408006969
print "$(x[6])"
0.3641476935989100272
print "$(y[6])"
0.18917243935550745459
print "$(x[6])"
0.3641476935989100272
print "$(y[6])"
0.18917243935550745459
print "$(x[2])"
0.0045246469567125253974
print "$(y[2])"
-0.0070493524441337098926
print "$(x[2])"
0.0045246469567125253974
print "$(y[2])"
-0.0070493524441337098926
print "$(x[5])"
1.5521284385510971671
print "$(y[5])"
0.84100280476408006969
print "$(x[5])"
1.5521284385510971671
print "$(y[5])"
0.84100280476408006969
print "$(x[7])"
0.35541002246382236152
print "$(y[7])"
0.72657226808640862359
print "$(x[7])"
0.35541002246382236152
print "$(y[7])"
0.72657226808640862359
print "$(x[2])"
0.0045246469567125253974
print "$(y[2])"
-0.0070493524441337098926
print "$(x[2])"
0.0045246469567125253974
print "$(y[2])"
-0.0070493524441337098926
print "$(x[6])"
0.3641476935989100272
print "$(y[6])"
0.18917243935550745459
print "$(x[6])"
0.3641476935989100272
print "$(y[6])"
0.18917243935550745459
print "$(x[7])"
0.35541002246382236152
print "$(y[7])"
0.72657226808640862359
print "$(x[7])"
0.35541002246382236152
print "$(y[7])"
0.72657226808640862359
print "$(x[3])"
-0.43941010078166692354
print "$(y[3])"
0.86790839064597169461
print "$(x[3])"
-0.43941010078166692354
print "$(y[3])"
0.86790839064597169461
print "$(x[4])"
0.54752648606737097658
print "$(y[4])"
0.75443863175933134624
print "$(x[4])"
0.54752648606737097658
print "$(y[4])"
0.75443863175933134624
print "$(x[5])"
1.5521284385510971671
print "$(y[5])"
0.84100280476408006969
print "$(x[5])"
1.5521284385510971671
print "$(y[5])"
0.84100280476408006969
print "$(x[3])"
-0.43941010078166692354
print "$(y[3])"
0.86790839064597169461
print "$(x[3])"
-0.43941010078166692354
print "$(y[3])"
0.86790839064597169461
print "$(x[4])"
0.54752648606737097658
print "$(y[4])"
0.75443863175933134624
print "$(x[4])"
0.54752648606737097658
print "$(y[4])"
0.75443863175933134624
print "$(x[6])"
0.3641476935989100272
print "$(y[6])"
0.18917243935550745459
print "$(x[6])"
0.3641476935989100272
print "$(y[6])"
0.18917243935550745459
print "$(x[3])"
-0.43941010078166692354
print "$(y[3])"
0.86790839064597169461
print "$(x[3])"
-0.43941010078166692354
print "$(y[3])"
0.86790839064597169461
print "$(x[4])"
0.54752648606737097658
print "$(y[4])"
0.75443863175933134624
print "$(x[4])"
0.54752648606737097658
print "$(y[4])"
0.75443863175933134624
print "$(x[7])"
0.35541002246382236152
print "$(y[7])"
0.72657226808640862359
print "$(x[7])"
0.35541002246382236152
print "$(y[7])"
0.72657226808640862359
print "$(x[3])"
-0.43941010078166692354
print "$(y[3])"
0.86790839064597169461
print "$(x[3])"
-0.43941010078166692354
print "$(y[3])"
0.86790839064597169461
print "$(x[5])"
1.5521284385510971671
print "$(y[5])"
0.84100280476408006969
print "$(x[5])"
1.5521284385510971671
print "$(y[5])"
0.84100280476408006969
print "$(x[6])"
0.3641476935989100272
print "$(y[6])"
0.18917243935550745459
print "$(x[6])"
0.3641476935989100272
print "$(y[6])"
0.18917243935550745459
print "$(x[3])"
-0.43941010078166692354
print "$(y[3])"
0.86790839064597169461
print "$(x[3])"
-0.43941010078166692354
print "$(y[3])"
0.86790839064597169461
print "$(x[5])"
1.5521284385510971671
print "$(y[5])"
0.84100280476408006969
print "$(x[5])"
1.5521284385510971671
print "$(y[5])"
0.84100280476408006969
print "$(x[7])"
0.35541002246382236152
print "$(y[7])"
0.72657226808640862359
print "$(x[7])"
0.35541002246382236152
print "$(y[7])"
0.72657226808640862359
print "$(x[3])"
-0.43941010078166692354
print "$(y[3])"
0.86790839064597169461
print "$(x[3])"
-0.43941010078166692354
print "$(y[3])"
0.86790839064597169461
print "$(x[6])"
0.3641476935989100272
print "$(y[6])"
0.18917243935550745459
print "$(x[6])"
0.3641476935989100272
print "$(y[6])"
0.18917243935550745459
print "$(x[7])"
0.35541002246382236152
print "$(y[7])"
0.72657226808640862359
print "$(x[7])"
0.35541002246382236152
print "$(y[7])"
0.72657226808640862359
print "$(x[4])"
0.54752648606737097658
print "$(y[4])"
0.75443863175933134624
print "$(x[4])"
0.54752648606737097658
print "$(y[4])"
0.75443863175933134624
print "$(x[5])"
1.5521284385510971671
print "$(y[5])"
0.84100280476408006969
print "$(x[5])"
1.5521284385510971671
print "$(y[5])"
0.84100280476408006969
print "$(x[6])"
0.3641476935989100272
print "$(y[6])"
0.18917243935550745459
print "$(x[6])"
0.3641476935989100272
print "$(y[6])"
0.18917243935550745459
print "$(x[4])"
0.54752648606737097658
print "$(y[4])"
0.75443863175933134624
print "$(x[4])"
0.54752648606737097658
print "$(y[4])"
0.75443863175933134624
print "$(x[5])"
1.5521284385510971671
print "$(y[5])"
0.84100280476408006969
print "$(x[5])"
1.5521284385510971671
print "$(y[5])"
0.84100280476408006969
print "$(x[7])"
0.35541002246382236152
print "$(y[7])"
0.72657226808640862359
print "$(x[7])"
0.35541002246382236152
print "$(y[7])"
0.72657226808640862359
print "$(x[4])"
0.54752648606737097658
print "$(y[4])"
0.75443863175933134624
print "$(x[4])"
0.54752648606737097658
print "$(y[4])"
0.75443863175933134624
print "$(x[6])"
0.3641476935989100272
print "$(y[6])"
0.18917243935550745459
print "$(x[6])"
0.3641476935989100272
print "$(y[6])"
0.18917243935550745459
print "$(x[7])"
0.35541002246382236152
print "$(y[7])"
0.72657226808640862359
print "$(x[7])"
0.35541002246382236152
print "$(y[7])"
0.72657226808640862359
print "$(x[5])"
1.5521284385510971671
print "$(y[5])"
0.84100280476408006969
print "$(x[5])"
1.5521284385510971671
print "$(y[5])"
0.84100280476408006969
print "$(x[6])"
0.3641476935989100272
print "$(y[6])"
0.18917243935550745459
print "$(x[6])"
0.3641476935989100272
print "$(y[6])"
0.18917243935550745459
print "$(x[7])"
0.35541002246382236152
print "$(y[7])"
0.72657226808640862359
print "$(x[7])"
0.35541002246382236152
print "$(y[7])"
0.72657226808640862359
run 166
Per MPI rank memory allocation (min/avg/max) = 3.840 | 3.840 | 3.840 Mbytes
Step Temp E_pair E_mol TotEng Press 
     332 0.00032434637            0 0.0001649698 0.00044298097 -6.0913267e-05 
     498 0.00013644891            0 0.00027539429 0.0003923505 -7.1785681e-05 
Loop time of 0.000382 on 1 procs for 166 steps with 7 atoms

Performance: 225273299.400 tau/day, 434554.976 timesteps/s
98.4% CPU use with 1 MPI tasks x no OpenMP threads

MPI task timing breakdown:
Section |  min time  |  avg time  |  max time  |%varavg| %total
---------------------------------------------------------------
Pair    | 0          | 0          | 0          |   0.0 |  0.00
Bond    | 8e-05      | 8e-05      | 8e-05      |   0.0 | 20.94
Neigh   | 0          | 0          | 0          |   0.0 |  0.00
Comm    | 3.7e-05    | 3.7e-05    | 3.7e-05    |   0.0 |  9.69
Output  | 1.1e-05    | 1.1e-05    | 1.1e-05    |   0.0 |  2.88
Modify  | 0.000163   | 0.000163   | 0.000163   |   0.0 | 42.67
Other   |            | 9.1e-05    |            |       | 23.82

Nlocal:        7.00000 ave           7 max           7 min
Histogram: 1 0 0 0 0 0 0 0 0 0
Nghost:        0.00000 ave           0 max           0 min
Histogram: 1 0 0 0 0 0 0 0 0 0
Neighs:        0.00000 ave           0 max           0 min
Histogram: 1 0 0 0 0 0 0 0 0 0

Total # of neighbors = 0
Ave neighs/atom = 0.0000000
Ave special neighs/atom = 6.0000000
Neighbor list builds = 0
Dangerous builds = 0
run 0
Per MPI rank memory allocation (min/avg/max) = 3.840 | 3.840 | 3.840 Mbytes
Step Temp E_pair E_mol TotEng Press 
     498 0.00013603354            0 0.00027539429 0.00039199447 -7.1802989e-05 
Loop time of 4e-06 on 1 procs for 0 steps with 7 atoms

50.0% CPU use with 1 MPI tasks x no OpenMP threads

MPI task timing breakdown:
Section |  min time  |  avg time  |  max time  |%varavg| %total
---------------------------------------------------------------
Pair    | 0          | 0          | 0          |   0.0 |  0.00
Bond    | 0          | 0          | 0          |   0.0 |  0.00
Neigh   | 0          | 0          | 0          |   0.0 |  0.00
Comm    | 0          | 0          | 0          |   0.0 |  0.00
Output  | 0          | 0          | 0          |   0.0 |  0.00
Modify  | 0          | 0          | 0          |   0.0 |  0.00
Other   |            | 4e-06      |            |       |100.00

Nlocal:        7.00000 ave           7 max           7 min
Histogram: 1 0 0 0 0 0 0 0 0 0
Nghost:        0.00000 ave           0 max           0 min
Histogram: 1 0 0 0 0 0 0 0 0 0
Neighs:        0.00000 ave           0 max           0 min
Histogram: 1 0 0 0 0 0 0 0 0 0

Total # of neighbors = 0
Ave neighs/atom = 0.0000000
Ave special neighs/atom = 6.0000000
Neighbor list builds = 0
Dangerous builds = 0
print "$(pe)"
0.00027539428572491214068
run 0
Per MPI rank memory allocation (min/avg/max) = 3.840 | 3.840 | 3.840 Mbytes
Step Temp E_pair E_mol TotEng Press 
     498 0.00013603354            0 0.00027539429 0.00039199447 -7.1802989e-05 
Loop time of 5e-06 on 1 procs for 0 steps with 7 atoms

40.0% CPU use with 1 MPI tasks x no OpenMP threads

MPI task timing breakdown:
Section |  min time  |  avg time  |  max time  |%varavg| %total
---------------------------------------------------------------
Pair    | 0          | 0          | 0          |   0.0 |  0.00
Bond    | 0          | 0          | 0          |   0.0 |  0.00
Neigh   | 0          | 0          | 0          |   0.0 |  0.00
Comm    | 0          | 0          | 0          |   0.0 |  0.00
Output  | 0          | 0          | 0          |   0.0 |  0.00
Modify  | 0          | 0          | 0          |   0.0 |  0.00
Other   |            | 5e-06      |            |       |100.00

Nlocal:        7.00000 ave           7 max           7 min
Histogram: 1 0 0 0 0 0 0 0 0 0
Nghost:        0.00000 ave           0 max           0 min
Histogram: 1 0 0 0 0 0 0 0 0 0
Neighs:        0.00000 ave           0 max           0 min
Histogram: 1 0 0 0 0 0 0 0 0 0

Total # of neighbors = 0
Ave neighs/atom = 0.0000000
Ave special neighs/atom = 6.0000000
Neighbor list builds = 0
Dangerous builds = 0
print "$(ke)"
0.0001166001801975514215
info system
info system
info system
info system
print "$(x[1])"
1.0271519635229722223
print "$(y[1])"
-0.01764648644028388863
info system
info system
print "$(x[2])"
0.028928728780588476577
print "$(y[2])"
-0.014853047976075456002
info system
info system
print "$(x[3])"
-0.43925273513228191291
print "$(y[3])"
0.86636379747519387529
info system
info system
print "$(x[4])"
0.56323070882519410407
print "$(y[4])"
0.76970237380110673175
info system
info system
print "$(x[5])"
1.5411936961047054684
print "$(y[5])"
0.85768271329827039384
info system
info system
print "$(x[6])"
0.36820451537389042862
print "$(y[6])"
0.18311087467057646228
info system
info system
print "$(x[7])"
0.37112714226849657928
print "$(y[7])"
0.74045731838863371177
info system
info system
info system
info system
print "$(x[1])"
1.0271519635229722223
print "$(y[1])"
-0.01764648644028388863
info system
info system
print "$(x[2])"
0.028928728780588476577
print "$(y[2])"
-0.014853047976075456002
info system
info system
print "$(x[3])"
-0.43925273513228191291
print "$(y[3])"
0.86636379747519387529
info system
info system
print "$(x[4])"
0.56323070882519410407
print "$(y[4])"
0.76970237380110673175
info system
info system
print "$(x[5])"
1.5411936961047054684
print "$(y[5])"
0.85768271329827039384
info system
info system
print "$(x[6])"
0.36820451537389042862
print "$(y[6])"
0.18311087467057646228
info system
info system
print "$(x[7])"
0.37112714226849657928
print "$(y[7])"
0.74045731838863371177
info system
info system
info system
info system
print "$(x[1])"
1.0271519635229722223
print "$(y[1])"
-0.01764648644028388863
print "$(x[1])"
1.0271519635229722223
print "$(y[1])"
-0.01764648644028388863
print "$(x[2])"
0.028928728780588476577
print "$(y[2])"
-0.014853047976075456002
print "$(x[2])"
0.028928728780588476577
print "$(y[2])"
-0.014853047976075456002
print "$(x[3])"
-0.43925273513228191291
print "$(y[3])"
0.86636379747519387529
print "$(x[3])"
-0.43925273513228191291
print "$(y[3])"
0.86636379747519387529
print "$(x[1])"
1.0271519635229722223
print "$(y[1])"
-0.01764648644028388863
print "$(x[1])"
1.0271519635229722223
print "$(y[1])"
-0.01764648644028388863
print "$(x[2])"
0.028928728780588476577
print "$(y[2])"
-0.014853047976075456002
print "$(x[2])"
0.028928728780588476577
print "$(y[2])"
-0.014853047976075456002
print "$(x[4])"
0.56323070882519410407
print "$(y[4])"
0.76970237380110673175
print "$(x[4])"
0.56323070882519410407
print "$(y[4])"
0.76970237380110673175
print "$(x[1])"
1.0271519635229722223
print "$(y[1])"
-0.01764648644028388863
print "$(x[1])"
1.0271519635229722223
print "$(y[1])"
-0.01764648644028388863
print "$(x[2])"
0.028928728780588476577
print "$(y[2])"
-0.014853047976075456002
print "$(x[2])"
0.028928728780588476577
print "$(y[2])"
-0.014853047976075456002
print "$(x[5])"
1.5411936961047054684
print "$(y[5])"
0.85768271329827039384
print "$(x[5])"
1.5411936961047054684
print "$(y[5])"
0.85768271329827039384
print "$(x[1])"
1.0271519635229722223
print "$(y[1])"
-0.01764648644028388863
print "$(x[1])"
1.0271519635229722223
print "$(y[1])"
-0.01764648644028388863
print "$(x[2])"
0.028928728780588476577
print "$(y[2])"
-0.014853047976075456002
print "$(x[2])"
0.028928728780588476577
print "$(y[2])"
-0.014853047976075456002
print "$(x[6])"
0.36820451537389042862
print "$(y[6])"
0.18311087467057646228
print "$(x[6])"
0.36820451537389042862
print "$(y[6])"
0.18311087467057646228
print "$(x[1])"
1.0271519635229722223
print "$(y[1])"
-0.01764648644028388863
print "$(x[1])"
1.0271519635229722223
print "$(y[1])"
-0.01764648644028388863
print "$(x[2])"
0.028928728780588476577
print "$(y[2])"
-0.014853047976075456002
print "$(x[2])"
0.028928728780588476577
print "$(y[2])"
-0.014853047976075456002
print "$(x[7])"
0.37112714226849657928
print "$(y[7])"
0.74045731838863371177
print "$(x[7])"
0.37112714226849657928
print "$(y[7])"
0.74045731838863371177
print "$(x[1])"
1.0271519635229722223
print "$(y[1])"
-0.01764648644028388863
print "$(x[1])"
1.0271519635229722223
print "$(y[1])"
-0.01764648644028388863
print "$(x[3])"
-0.43925273513228191291
print "$(y[3])"
0.86636379747519387529
print "$(x[3])"
-0.43925273513228191291
print "$(y[3])"
0.86636379747519387529
print "$(x[4])"
0.56323070882519410407
print "$(y[4])"
0.76970237380110673175
print "$(x[4])"
0.56323070882519410407
print "$(y[4])"
0.76970237380110673175
print "$(x[1])"
1.0271519635229722223
print "$(y[1])"
-0.01764648644028388863
print "$(x[1])"
1.0271519635229722223
print "$(y[1])"
-0.01764648644028388863
print "$(x[3])"
-0.43925273513228191291
print "$(y[3])"
0.86636379747519387529
print "$(x[3])"
-0.43925273513228191291
print "$(y[3])"
0.86636379747519387529
print "$(x[5])"
1.5411936961047054684
print "$(y[5])"
0.85768271329827039384
print "$(x[5])"
1.5411936961047054684
print "$(y[5])"
0.85768271329827039384
print "$(x[1])"
1.0271519635229722223
print "$(y[1])"
-0.01764648644028388863
print "$(x[1])"
1.0271519635229722223
print "$(y[1])"
-0.01764648644028388863
print "$(x[3])"
-0.43925273513228191291
print "$(y[3])"
0.86636379747519387529
print "$(x[3])"
-0.43925273513228191291
print "$(y[3])"
0.86636379747519387529
print "$(x[6])"
0.36820451537389042862
print "$(y[6])"
0.18311087467057646228
print "$(x[6])"
0.36820451537389042862
print "$(y[6])"
0.18311087467057646228
print "$(x[1])"
1.0271519635229722223
print "$(y[1])"
-0.01764648644028388863
print "$(x[1])"
1.0271519635229722223
print "$(y[1])"
-0.01764648644028388863
print "$(x[3])"
-0.43925273513228191291
print "$(y[3])"
0.86636379747519387529
print "$(x[3])"
-0.43925273513228191291
print "$(y[3])"
0.86636379747519387529
print "$(x[7])"
0.37112714226849657928
print "$(y[7])"
0.74045731838863371177
print "$(x[7])"
0.37112714226849657928
print "$(y[7])"
0.74045731838863371177
print "$(x[1])"
1.0271519635229722223
print "$(y[1])"
-0.01764648644028388863
print "$(x[1])"
1.0271519635229722223
print "$(y[1])"
-0.01764648644028388863
print "$(x[4])"
0.56323070882519410407
print "$(y[4])"
0.76970237380110673175
print "$(x[4])"
0.56323070882519410407
print "$(y[4])"
0.76970237380110673175
print "$(x[5])"
1.5411936961047054684
print "$(y[5])"
0.85768271329827039384
print "$(x[5])"
1.5411936961047054684
print "$(y[5])"
0.85768271329827039384
print "$(x[1])"
1.0271519635229722223
print "$(y[1])"
-0.01764648644028388863
print "$(x[1])"
1.0271519635229722223
print "$(y[1])"
-0.01764648644028388863
print "$(x[4])"
0.56323070882519410407
print "$(y[4])"
0.76970237380110673175
print "$(x[4])"
0.56323070882519410407
print "$(y[4])"
0.76970237380110673175
print "$(x[6])"
0.36820451537389042862
print "$(y[6])"
0.18311087467057646228
print "$(x[6])"
0.36820451537389042862
print "$(y[6])"
0.18311087467057646228
print "$(x[1])"
1.0271519635229722223
print "$(y[1])"
-0.01764648644028388863
print "$(x[1])"
1.0271519635229722223
print "$(y[1])"
-0.01764648644028388863
print "$(x[4])"
0.56323070882519410407
print "$(y[4])"
0.76970237380110673175
print "$(x[4])"
0.56323070882519410407
print "$(y[4])"
0.76970237380110673175
print "$(x[7])"
0.37112714226849657928
print "$(y[7])"
0.74045731838863371177
print "$(x[7])"
0.37112714226849657928
print "$(y[7])"
0.74045731838863371177
print "$(x[1])"
1.0271519635229722223
print "$(y[1])"
-0.01764648644028388863
print "$(x[1])"
1.0271519635229722223
print "$(y[1])"
-0.01764648644028388863
print "$(x[5])"
1.5411936961047054684
print "$(y[5])"
0.85768271329827039384
print "$(x[5])"
1.5411936961047054684
print "$(y[5])"
0.85768271329827039384
print "$(x[6])"
0.36820451537389042862
print "$(y[6])"
0.18311087467057646228
print "$(x[6])"
0.36820451537389042862
print "$(y[6])"
0.18311087467057646228
print "$(x[1])"
1.0271519635229722223
print "$(y[1])"
-0.01764648644028388863
print "$(x[1])"
1.0271519635229722223
print "$(y[1])"
-0.01764648644028388863
print "$(x[5])"
1.5411936961047054684
print "$(y[5])"
0.85768271329827039384
print "$(x[5])"
1.5411936961047054684
print "$(y[5])"
0.85768271329827039384
print "$(x[7])"
0.37112714226849657928
print "$(y[7])"
0.74045731838863371177
print "$(x[7])"
0.37112714226849657928
print "$(y[7])"
0.74045731838863371177
print "$(x[1])"
1.0271519635229722223
print "$(y[1])"
-0.01764648644028388863
print "$(x[1])"
1.0271519635229722223
print "$(y[1])"
-0.01764648644028388863
print "$(x[6])"
0.36820451537389042862
print "$(y[6])"
0.18311087467057646228
print "$(x[6])"
0.36820451537389042862
print "$(y[6])"
0.18311087467057646228
print "$(x[7])"
0.37112714226849657928
print "$(y[7])"
0.74045731838863371177
print "$(x[7])"
0.37112714226849657928
print "$(y[7])"
0.74045731838863371177
print "$(x[2])"
0.028928728780588476577
print "$(y[2])"
-0.014853047976075456002
print "$(x[2])"
0.028928728780588476577
print "$(y[2])"
-0.014853047976075456002
print "$(x[3])"
-0.43925273513228191291
print "$(y[3])"
0.86636379747519387529
print "$(x[3])"
-0.43925273513228191291
print "$(y[3])"
0.86636379747519387529
print "$(x[4])"
0.56323070882519410407
print "$(y[4])"
0.76970237380110673175
print "$(x[4])"
0.56323070882519410407
print "$(y[4])"
0.76970237380110673175
print "$(x[2])"
0.028928728780588476577
print "$(y[2])"
-0.014853047976075456002
print "$(x[2])"
0.028928728780588476577
print "$(y[2])"
-0.014853047976075456002
print "$(x[3])"
-0.43925273513228191291
print "$(y[3])"
0.86636379747519387529
print "$(x[3])"
-0.43925273513228191291
print "$(y[3])"
0.86636379747519387529
print "$(x[5])"
1.5411936961047054684
print "$(y[5])"
0.85768271329827039384
print "$(x[5])"
1.5411936961047054684
print "$(y[5])"
0.85768271329827039384
print "$(x[2])"
0.028928728780588476577
print "$(y[2])"
-0.014853047976075456002
print "$(x[2])"
0.028928728780588476577
print "$(y[2])"
-0.014853047976075456002
print "$(x[3])"
-0.43925273513228191291
print "$(y[3])"
0.86636379747519387529
print "$(x[3])"
-0.43925273513228191291
print "$(y[3])"
0.86636379747519387529
print "$(x[6])"
0.36820451537389042862
print "$(y[6])"
0.18311087467057646228
print "$(x[6])"
0.36820451537389042862
print "$(y[6])"
0.18311087467057646228
print "$(x[2])"
0.028928728780588476577
print "$(y[2])"
-0.014853047976075456002
print "$(x[2])"
0.028928728780588476577
print "$(y[2])"
-0.014853047976075456002
print "$(x[3])"
-0.43925273513228191291
print "$(y[3])"
0.86636379747519387529
print "$(x[3])"
-0.43925273513228191291
print "$(y[3])"
0.86636379747519387529
print "$(x[7])"
0.37112714226849657928
print "$(y[7])"
0.74045731838863371177
print "$(x[7])"
0.37112714226849657928
print "$(y[7])"
0.74045731838863371177
print "$(x[2])"
0.028928728780588476577
print "$(y[2])"
-0.014853047976075456002
print "$(x[2])"
0.028928728780588476577
print "$(y[2])"
-0.014853047976075456002
print "$(x[4])"
0.56323070882519410407
print "$(y[4])"
0.76970237380110673175
print "$(x[4])"
0.56323070882519410407
print "$(y[4])"
0.76970237380110673175
print "$(x[5])"
1.5411936961047054684
print "$(y[5])"
0.85768271329827039384
print "$(x[5])"
1.5411936961047054684
print "$(y[5])"
0.85768271329827039384
print "$(x[2])"
0.028928728780588476577
print "$(y[2])"
-0.014853047976075456002
print "$(x[2])"
0.028928728780588476577
print "$(y[2])"
-0.014853047976075456002
print "$(x[4])"
0.56323070882519410407
print "$(y[4])"
0.76970237380110673175
print "$(x[4])"
0.56323070882519410407
print "$(y[4])"
0.76970237380110673175
print "$(x[6])"
0.36820451537389042862
print "$(y[6])"
0.18311087467057646228
print "$(x[6])"
0.36820451537389042862
print "$(y[6])"
0.18311087467057646228
print "$(x[2])"
0.028928728780588476577
print "$(y[2])"
-0.014853047976075456002
print "$(x[2])"
0.028928728780588476577
print "$(y[2])"
-0.014853047976075456002
print "$(x[4])"
0.56323070882519410407
print "$(y[4])"
0.76970237380110673175
print "$(x[4])"
0.56323070882519410407
print "$(y[4])"
0.76970237380110673175
print "$(x[7])"
0.37112714226849657928
print "$(y[7])"
0.74045731838863371177
print "$(x[7])"
0.37112714226849657928
print "$(y[7])"
0.74045731838863371177
print "$(x[2])"
0.028928728780588476577
print "$(y[2])"
-0.014853047976075456002
print "$(x[2])"
0.028928728780588476577
print "$(y[2])"
-0.014853047976075456002
print "$(x[5])"
1.5411936961047054684
print "$(y[5])"
0.85768271329827039384
print "$(x[5])"
1.5411936961047054684
print "$(y[5])"
0.85768271329827039384
print "$(x[6])"
0.36820451537389042862
print "$(y[6])"
0.18311087467057646228
print "$(x[6])"
0.36820451537389042862
print "$(y[6])"
0.18311087467057646228
print "$(x[2])"
0.028928728780588476577
print "$(y[2])"
-0.014853047976075456002
print "$(x[2])"
0.028928728780588476577
print "$(y[2])"
-0.014853047976075456002
print "$(x[5])"
1.5411936961047054684
print "$(y[5])"
0.85768271329827039384
print "$(x[5])"
1.5411936961047054684
print "$(y[5])"
0.85768271329827039384
print "$(x[7])"
0.37112714226849657928
print "$(y[7])"
0.74045731838863371177
print "$(x[7])"
0.37112714226849657928
print "$(y[7])"
0.74045731838863371177
print "$(x[2])"
0.028928728780588476577
print "$(y[2])"
-0.014853047976075456002
print "$(x[2])"
0.028928728780588476577
print "$(y[2])"
-0.014853047976075456002
print "$(x[6])"
0.36820451537389042862
print "$(y[6])"
0.18311087467057646228
print "$(x[6])"
0.36820451537389042862
print "$(y[6])"
0.18311087467057646228
print "$(x[7])"
0.37112714226849657928
print "$(y[7])"
0.74045731838863371177
print "$(x[7])"
0.37112714226849657928
print "$(y[7])"
0.74045731838863371177
print "$(x[3])"
-0.43925273513228191291
print "$(y[3])"
0.86636379747519387529
print "$(x[3])"
-0.43925273513228191291
print "$(y[3])"
0.86636379747519387529
print "$(x[4])"
0.56323070882519410407
print "$(y[4])"
0.76970237380110673175
print "$(x[4])"
0.56323070882519410407
print "$(y[4])"
0.76970237380110673175
print "$(x[5])"
1.5411936961047054684
print "$(y[5])"
0.85768271329827039384
print "$(x[5])"
1.5411936961047054684
print "$(y[5])"
0.85768271329827039384
print "$(x[3])"
-0.43925273513228191291
print "$(y[3])"
0.86636379747519387529
print "$(x[3])"
-0.43925273513228191291
print "$(y[3])"
0.86636379747519387529
print "$(x[4])"
0.56323070882519410407
print "$(y[4])"
0.76970237380110673175
print "$(x[4])"
0.56323070882519410407
print "$(y[4])"
0.76970237380110673175
print "$(x[6])"
0.36820451537389042862
print "$(y[6])"
0.18311087467057646228
print "$(x[6])"
0.36820451537389042862
print "$(y[6])"
0.18311087467057646228
print "$(x[3])"
-0.43925273513228191291
print "$(y[3])"
0.86636379747519387529
print "$(x[3])"
-0.43925273513228191291
print "$(y[3])"
0.86636379747519387529
print "$(x[4])"
0.56323070882519410407
print "$(y[4])"
0.76970237380110673175
print "$(x[4])"
0.56323070882519410407
print "$(y[4])"
0.76970237380110673175
print "$(x[7])"
0.37112714226849657928
print "$(y[7])"
0.74045731838863371177
print "$(x[7])"
0.37112714226849657928
print "$(y[7])"
0.74045731838863371177
print "$(x[3])"
-0.43925273513228191291
print "$(y[3])"
0.86636379747519387529
print "$(x[3])"
-0.43925273513228191291
print "$(y[3])"
0.86636379747519387529
print "$(x[5])"
1.5411936961047054684
print "$(y[5])"
0.85768271329827039384
print "$(x[5])"
1.5411936961047054684
print "$(y[5])"
0.85768271329827039384
print "$(x[6])"
0.36820451537389042862
print "$(y[6])"
0.18311087467057646228
print "$(x[6])"
0.36820451537389042862
print "$(y[6])"
0.18311087467057646228
print "$(x[3])"
-0.43925273513228191291
print "$(y[3])"
0.86636379747519387529
print "$(x[3])"
-0.43925273513228191291
print "$(y[3])"
0.86636379747519387529
print "$(x[5])"
1.5411936961047054684
print "$(y[5])"
0.85768271329827039384
print "$(x[5])"
1.5411936961047054684
print "$(y[5])"
0.85768271329827039384
print "$(x[7])"
0.37112714226849657928
print "$(y[7])"
0.74045731838863371177
print "$(x[7])"
0.37112714226849657928
print "$(y[7])"
0.74045731838863371177
print "$(x[3])"
-0.43925273513228191291
print "$(y[3])"
0.86636379747519387529
print "$(x[3])"
-0.43925273513228191291
print "$(y[3])"
0.86636379747519387529
print "$(x[6])"
0.36820451537389042862
print "$(y[6])"
0.18311087467057646228
print "$(x[6])"
0.36820451537389042862
print "$(y[6])"
0.18311087467057646228
print "$(x[7])"
0.37112714226849657928
print "$(y[7])"
0.74045731838863371177
print "$(x[7])"
0.37112714226849657928
print "$(y[7])"
0.74045731838863371177
print "$(x[4])"
0.56323070882519410407
print "$(y[4])"
0.76970237380110673175
print "$(x[4])"
0.56323070882519410407
print "$(y[4])"
0.76970237380110673175
print "$(x[5])"
1.5411936961047054684
print "$(y[5])"
0.85768271329827039384
print "$(x[5])"
1.5411936961047054684
print "$(y[5])"
0.85768271329827039384
print "$(x[6])"
0.36820451537389042862
print "$(y[6])"
0.18311087467057646228
print "$(x[6])"
0.36820451537389042862
print "$(y[6])"
0.18311087467057646228
print "$(x[4])"
0.56323070882519410407
print "$(y[4])"
0.76970237380110673175
print "$(x[4])"
0.56323070882519410407
print "$(y[4])"
0.76970237380110673175
print "$(x[5])"
1.5411936961047054684
print "$(y[5])"
0.85768271329827039384
print "$(x[5])"
1.5411936961047054684
print "$(y[5])"
0.85768271329827039384
print "$(x[7])"
0.37112714226849657928
print "$(y[7])"
0.74045731838863371177
print "$(x[7])"
0.37112714226849657928
print "$(y[7])"
0.74045731838863371177
print "$(x[4])"
0.56323070882519410407
print "$(y[4])"
0.76970237380110673175
print "$(x[4])"
0.56323070882519410407
print "$(y[4])"
0.76970237380110673175
print "$(x[6])"
0.36820451537389042862
print "$(y[6])"
0.18311087467057646228
print "$(x[6])"
0.36820451537389042862
print "$(y[6])"
0.18311087467057646228
print "$(x[7])"
0.37112714226849657928
print "$(y[7])"
0.74045731838863371177
print "$(x[7])"
0.37112714226849657928
print "$(y[7])"
0.74045731838863371177
print "$(x[5])"
1.5411936961047054684
print "$(y[5])"
0.85768271329827039384
print "$(x[5])"
1.5411936961047054684
print "$(y[5])"
0.85768271329827039384
print "$(x[6])"
0.36820451537389042862
print "$(y[6])"
0.18311087467057646228
print "$(x[6])"
0.36820451537389042862
print "$(y[6])"
0.18311087467057646228
print "$(x[7])"
0.37112714226849657928
print "$(y[7])"
0.74045731838863371177
print "$(x[7])"
0.37112714226849657928
print "$(y[7])"
0.74045731838863371177
run 166
Per MPI rank memory allocation (min/avg/max) = 3.840 | 3.840 | 3.840 Mbytes
Step Temp E_pair E_mol TotEng Press 
     498 0.00013603354            0 0.00027539429 0.00039199447 -7.1802989e-05 
     664 0.00038880094            0 0.00021855998 0.00055181792 0.00017389033 
Loop time of 0.000542 on 1 procs for 166 steps with 7 atoms

Performance: 158771956.320 tau/day, 306273.064 timesteps/s
91.3% CPU use with 1 MPI tasks x no OpenMP threads

MPI task timing breakdown:
Section |  min time  |  avg time  |  max time  |%varavg| %total
---------------------------------------------------------------
Pair    | 0          | 0          | 0          |   0.0 |  0.00
Bond    | 0.000123   | 0.000123   | 0.000123   |   0.0 | 22.69
Neigh   | 0          | 0          | 0          |   0.0 |  0.00
Comm    | 3.3e-05    | 3.3e-05    | 3.3e-05    |   0.0 |  6.09
Output  | 3.9e-05    | 3.9e-05    | 3.9e-05    |   0.0 |  7.20
Modify  | 0.000218   | 0.000218   | 0.000218   |   0.0 | 40.22
Other   |            | 0.000129   |            |       | 23.80

Nlocal:        7.00000 ave           7 max           7 min
Histogram: 1 0 0 0 0 0 0 0 0 0
Nghost:        0.00000 ave           0 max           0 min
Histogram: 1 0 0 0 0 0 0 0 0 0
Neighs:        0.00000 ave           0 max           0 min
Histogram: 1 0 0 0 0 0 0 0 0 0

Total # of neighbors = 0
Ave neighs/atom = 0.0000000
Ave special neighs/atom = 6.0000000
Neighbor list builds = 0
Dangerous builds = 0
run 0
Per MPI rank memory allocation (min/avg/max) = 3.840 | 3.840 | 3.840 Mbytes
Step Temp E_pair E_mol TotEng Press 
     664 0.00038817408            0 0.00021855998 0.00055128061 0.00017386421 
Loop time of 4e-06 on 1 procs for 0 steps with 7 atoms

50.0% CPU use with 1 MPI tasks x no OpenMP threads

MPI task timing breakdown:
Section |  min time  |  avg time  |  max time  |%varavg| %total
---------------------------------------------------------------
Pair    | 0          | 0          | 0          |   0.0 |  0.00
Bond    | 0          | 0          | 0          |   0.0 |  0.00
Neigh   | 0          | 0          | 0          |   0.0 |  0.00
Comm    | 0          | 0          | 0          |   0.0 |  0.00
Output  | 0          | 0          | 0          |   0.0 |  0.00
Modify  | 0          | 0          | 0          |   0.0 |  0.00
Other   |            | 4e-06      |            |       |100.00

Nlocal:        7.00000 ave           7 max           7 min
Histogram: 1 0 0 0 0 0 0 0 0 0
Nghost:        0.00000 ave           0 max           0 min
Histogram: 1 0 0 0 0 0 0 0 0 0
Neighs:        0.00000 ave           0 max           0 min
Histogram: 1 0 0 0 0 0 0 0 0 0

Total # of neighbors = 0
Ave neighs/atom = 0.0000000
Ave special neighs/atom = 6.0000000
Neighbor list builds = 0
Dangerous builds = 0
print "$(pe)"
0.00021855997529621103972
run 0
Per MPI rank memory allocation (min/avg/max) = 3.840 | 3.840 | 3.840 Mbytes
Step Temp E_pair E_mol TotEng Press 
     664 0.00038817408            0 0.00021855998 0.00055128061 0.00017386421 
Loop time of 4e-06 on 1 procs for 0 steps with 7 atoms

50.0% CPU use with 1 MPI tasks x no OpenMP threads

MPI task timing breakdown:
Section |  min time  |  avg time  |  max time  |%varavg| %total
---------------------------------------------------------------
Pair    | 0          | 0          | 0          |   0.0 |  0.00
Bond    | 0          | 0          | 0          |   0.0 |  0.00
Neigh   | 0          | 0          | 0          |   0.0 |  0.00
Comm    | 0          | 0          | 0          |   0.0 |  0.00
Output  | 0          | 0          | 0          |   0.0 |  0.00
Modify  | 0          | 0          | 0          |   0.0 |  0.00
Other   |            | 4e-06      |            |       |100.00

Nlocal:        7.00000 ave           7 max           7 min
Histogram: 1 0 0 0 0 0 0 0 0 0
Nghost:        0.00000 ave           0 max           0 min
Histogram: 1 0 0 0 0 0 0 0 0 0
Neighs:        0.00000 ave           0 max           0 min
Histogram: 1 0 0 0 0 0 0 0 0 0

Total # of neighbors = 0
Ave neighs/atom = 0.0000000
Ave special neighs/atom = 6.0000000
Neighbor list builds = 0
Dangerous builds = 0
print "$(ke)"
0.00033272063850856128985
info system
info system
info system
info system
print "$(x[1])"
1.028649388457290037
print "$(y[1])"
-0.0065502124510503287325
info system
info system
print "$(x[2])"
0.023418317122604902919
print "$(y[2])"
0.012176619131257547871
info system
info system
print "$(x[3])"
-0.43695595848888518775
print "$(y[3])"
0.85673073558837076202
info system
info system
print "$(x[4])"
0.56401134090178850489
print "$(y[4])"
0.76733112206349318729
info system
info system
print "$(x[5])"
1.5523675486420156489
print "$(y[5])"
0.84011882874057608461
info system
info system
print "$(x[6])"
0.38893718607185451264
print "$(y[6])"
0.17436476719722340811
info system
info system
print "$(x[7])"
0.34534300106886528514
print "$(y[7])"
0.75504121204606888806
info system
info system
info system
info system
print "$(x[1])"
1.028649388457290037
print "$(y[1])"
-0.0065502124510503287325
info system
info system
print "$(x[2])"
0.023418317122604902919
print "$(y[2])"
0.012176619131257547871
info system
info system
print "$(x[3])"
-0.43695595848888518775
print "$(y[3])"
0.85673073558837076202
info system
info system
print "$(x[4])"
0.56401134090178850489
print "$(y[4])"
0.76733112206349318729
info system
info system
print "$(x[5])"
1.5523675486420156489
print "$(y[5])"
0.84011882874057608461
info system
info system
print "$(x[6])"
0.38893718607185451264
print "$(y[6])"
0.17436476719722340811
info system
info system
print "$(x[7])"
0.34534300106886528514
print "$(y[7])"
0.75504121204606888806
info system
info system
info system
info system
print "$(x[1])"
1.028649388457290037
print "$(y[1])"
-0.0065502124510503287325
print "$(x[1])"
1.028649388457290037
print "$(y[1])"
-0.0065502124510503287325
print "$(x[2])"
0.023418317122604902919
print "$(y[2])"
0.012176619131257547871
print "$(x[2])"
0.023418317122604902919
print "$(y[2])"
0.012176619131257547871
print "$(x[3])"
-0.43695595848888518775
print "$(y[3])"
0.85673073558837076202
print "$(x[3])"
-0.43695595848888518775
print "$(y[3])"
0.85673073558837076202
print "$(x[1])"
1.028649388457290037
print "$(y[1])"
-0.0065502124510503287325
print "$(x[1])"
1.028649388457290037
print "$(y[1])"
-0.0065502124510503287325
print "$(x[2])"
0.023418317122604902919
print "$(y[2])"
0.012176619131257547871
print "$(x[2])"
0.023418317122604902919
print "$(y[2])"
0.012176619131257547871
print "$(x[4])"
0.56401134090178850489
print "$(y[4])"
0.76733112206349318729
print "$(x[4])"
0.56401134090178850489
print "$(y[4])"
0.76733112206349318729
print "$(x[1])"
1.028649388457290037
print "$(y[1])"
-0.0065502124510503287325
print "$(x[1])"
1.028649388457290037
print "$(y[1])"
-0.0065502124510503287325
print "$(x[2])"
0.023418317122604902919
print "$(y[2])"
0.012176619131257547871
print "$(x[2])"
0.023418317122604902919
print "$(y[2])"
0.012176619131257547871
print "$(x[5])"
1.5523675486420156489
print "$(y[5])"
0.84011882874057608461
print "$(x[5])"
1.5523675486420156489
print "$(y[5])"
0.84011882874057608461
print "$(x[1])"
1.028649388457290037
print "$(y[1])"
-0.0065502124510503287325
print "$(x[1])"
1.028649388457290037
print "$(y[1])"
-0.0065502124510503287325
print "$(x[2])"
0.023418317122604902919
print "$(y[2])"
0.012176619131257547871
print "$(x[2])"
0.023418317122604902919
print "$(y[2])"
0.012176619131257547871
print "$(x[6])"
0.38893718607185451264
print "$(y[6])"
0.17436476719722340811
print "$(x[6])"
0.38893718607185451264
print "$(y[6])"
0.17436476719722340811
print "$(x[1])"
1.028649388457290037
print "$(y[1])"
-0.0065502124510503287325
print "$(x[1])"
1.028649388457290037
print "$(y[1])"
-0.0065502124510503287325
print "$(x[2])"
0.023418317122604902919
print "$(y[2])"
0.012176619131257547871
print "$(x[2])"
0.023418317122604902919
print "$(y[2])"
0.012176619131257547871
print "$(x[7])"
0.34534300106886528514
print "$(y[7])"
0.75504121204606888806
print "$(x[7])"
0.34534300106886528514
print "$(y[7])"
0.75504121204606888806
print "$(x[1])"
1.028649388457290037
print "$(y[1])"
-0.0065502124510503287325
print "$(x[1])"
1.028649388457290037
print "$(y[1])"
-0.0065502124510503287325
print "$(x[3])"
-0.43695595848888518775
print "$(y[3])"
0.85673073558837076202
print "$(x[3])"
-0.43695595848888518775
print "$(y[3])"
0.85673073558837076202
print "$(x[4])"
0.56401134090178850489
print "$(y[4])"
0.76733112206349318729
print "$(x[4])"
0.56401134090178850489
print "$(y[4])"
0.76733112206349318729
print "$(x[1])"
1.028649388457290037
print "$(y[1])"
-0.0065502124510503287325
print "$(x[1])"
1.028649388457290037
print "$(y[1])"
-0.0065502124510503287325
print "$(x[3])"
-0.43695595848888518775
print "$(y[3])"
0.85673073558837076202
print "$(x[3])"
-0.43695595848888518775
print "$(y[3])"
0.85673073558837076202
print "$(x[5])"
1.5523675486420156489
print "$(y[5])"
0.84011882874057608461
print "$(x[5])"
1.5523675486420156489
print "$(y[5])"
0.84011882874057608461
print "$(x[1])"
1.028649388457290037
print "$(y[1])"
-0.0065502124510503287325
print "$(x[1])"
1.028649388457290037
print "$(y[1])"
-0.0065502124510503287325
print "$(x[3])"
-0.43695595848888518775
print "$(y[3])"
0.85673073558837076202
print "$(x[3])"
-0.43695595848888518775
print "$(y[3])"
0.85673073558837076202
print "$(x[6])"
0.38893718607185451264
print "$(y[6])"
0.17436476719722340811
print "$(x[6])"
0.38893718607185451264
print "$(y[6])"
0.17436476719722340811
print "$(x[1])"
1.028649388457290037
print "$(y[1])"
-0.0065502124510503287325
print "$(x[1])"
1.028649388457290037
print "$(y[1])"
-0.0065502124510503287325
print "$(x[3])"
-0.43695595848888518775
print "$(y[3])"
0.85673073558837076202
print "$(x[3])"
-0.43695595848888518775
print "$(y[3])"
0.85673073558837076202
print "$(x[7])"
0.34534300106886528514
print "$(y[7])"
0.75504121204606888806
print "$(x[7])"
0.34534300106886528514
print "$(y[7])"
0.75504121204606888806
print "$(x[1])"
1.028649388457290037
print "$(y[1])"
-0.0065502124510503287325
print "$(x[1])"
1.028649388457290037
print "$(y[1])"
-0.0065502124510503287325
print "$(x[4])"
0.56401134090178850489
print "$(y[4])"
0.76733112206349318729
print "$(x[4])"
0.56401134090178850489
print "$(y[4])"
0.76733112206349318729
print "$(x[5])"
1.5523675486420156489
print "$(y[5])"
0.84011882874057608461
print "$(x[5])"
1.5523675486420156489
print "$(y[5])"
0.84011882874057608461
print "$(x[1])"
1.028649388457290037
print "$(y[1])"
-0.0065502124510503287325
print "$(x[1])"
1.028649388457290037
print "$(y[1])"
-0.0065502124510503287325
print "$(x[4])"
0.56401134090178850489
print "$(y[4])"
0.76733112206349318729
print "$(x[4])"
0.56401134090178850489
print "$(y[4])"
0.76733112206349318729
print "$(x[6])"
0.38893718607185451264
print "$(y[6])"
0.17436476719722340811
print "$(x[6])"
0.38893718607185451264
print "$(y[6])"
0.17436476719722340811
print "$(x[1])"
1.028649388457290037
print "$(y[1])"
-0.0065502124510503287325
print "$(x[1])"
1.028649388457290037
print "$(y[1])"
-0.0065502124510503287325
print "$(x[4])"
0.56401134090178850489
print "$(y[4])"
0.76733112206349318729
print "$(x[4])"
0.56401134090178850489
print "$(y[4])"
0.76733112206349318729
print "$(x[7])"
0.34534300106886528514
print "$(y[7])"
0.75504121204606888806
print "$(x[7])"
0.34534300106886528514
print "$(y[7])"
0.75504121204606888806
print "$(x[1])"
1.028649388457290037
print "$(y[1])"
-0.0065502124510503287325
print "$(x[1])"
1.028649388457290037
print "$(y[1])"
-0.0065502124510503287325
print "$(x[5])"
1.5523675486420156489
print "$(y[5])"
0.84011882874057608461
print "$(x[5])"
1.5523675486420156489
print "$(y[5])"
0.84011882874057608461
print "$(x[6])"
0.38893718607185451264
print "$(y[6])"
0.17436476719722340811
print "$(x[6])"
0.38893718607185451264
print "$(y[6])"
0.17436476719722340811
print "$(x[1])"
1.028649388457290037
print "$(y[1])"
-0.0065502124510503287325
print "$(x[1])"
1.028649388457290037
print "$(y[1])"
-0.0065502124510503287325
print "$(x[5])"
1.5523675486420156489
print "$(y[5])"
0.84011882874057608461
print "$(x[5])"
1.5523675486420156489
print "$(y[5])"
0.84011882874057608461
print "$(x[7])"
0.34534300106886528514
print "$(y[7])"
0.75504121204606888806
print "$(x[7])"
0.34534300106886528514
print "$(y[7])"
0.75504121204606888806
print "$(x[1])"
1.028649388457290037
print "$(y[1])"
-0.0065502124510503287325
print "$(x[1])"
1.028649388457290037
print "$(y[1])"
[...]
                                                                                                                                                                                                                                                                                                                                                                                                                                                                                                                                                                                                                                                                                                                                                                                                                                                                                                                                                                                                                                                                                                                                                                                                                                                                                                                                                                                                                                                                                                                                                                                                                                                                                                                                                                                                                                                                                                                                                                                                                                                                                                                                                                                                                                                                                                                                                                                                                                                                                                                                                                                                                                                                                                                                                                                                                                                                                                                                                                                                                                                                                                                                                                                                                                                                                                                                                                                                                                                                                                                                                                                                                                                                                                                                                                                                                                                                                                                                                                                                                                                                                                                                                                                                                                                                                                                                                                                                                                                                                                                                                                                                                                                                                                                                                                                                                                                                                                                                                                                                                                                                                                                                                                                                                                                                                                                                                                                                                                                                                                                                                                                                                                                                                                                                                                                                                                                                                                                                                                                                                                                                                                                                                                                                                                                                                                                                                                                                                                                                                                                                                                                                                                                                                                                                                                                                                                                                                                                                                                                                                                                                                                                                                                                                                                                                                                                                                                                                                                                                                                                                                                                                                                                                                                                                                                                                                                                                                                                                                                                                                                                                                                                                                                                                                                                                                                                                                                                                                                                                                                                                                                                                                                                                                                                                                                                                                                                                                                                                                                                                                                                                                                                                                                                                                                                                                                                                                                                                                                                                                                                                                                                                                                                                                                                                                                                                                                                                                                                                                                                                                                                                                                                                                                                                                                                                                                                                                                                                                                                                                                                                                                                                                                                                                                                                                                                                                                                                                                                                                                                                                                                                                                                                                                                                                                                                                                                                                                                                                                                                                                                                                                                                                                                                                                                                                                                                                                                                                                                                                                                                                                                                                                                                                                                                                                                                                                                                                                                                                                                                                                                                                                                                                                                                                                                                                                                                                                                                                                                                                                                                                                                                                                                                                                                                                                                                                                                                                                                                                                                                                                                                                                                                                                                                                                                                                                                                                                                                                                                                                                                                                                                                                                                                                                                                                                                                                                                                                                                                                                                                                                                                                                                                                                                                                                                                                                                                                                                                                                                                                                                                                                                                                                                                                                                                                                                                                                                                                                                                                                                                                                                                                                                                                                                                                                                                                                                                                                                                                                                                                                                                                                                                                                                                                                                                                                                                                                                                                                                                                                                                                                                                                                                                                                                                                                                                                                                                                                                                                                                                                                                                                                                                                                                                                                                                                                                                                                                                                                                                                                                                                                                                                                                                                                                                                                                                                                                                                                                                                                                                                                                                                                                                                                                                                                                                                                                                                                                                                                                                                                                                                                                                                                                                                                                                                                                                                                                                                                                                                                                                                                               82
print "$(y[4])"
0.77428337723387430369
print "$(x[5])"
1.5418782267051722723
print "$(y[5])"
0.77179827840511372461
print "$(x[5])"
1.5418782267051722723
print "$(y[5])"
0.77179827840511372461
print "$(x[6])"
0.35823401596138004788
print "$(y[6])"
0.18011165168407816672
print "$(x[6])"
0.35823401596138004788
print "$(y[6])"
0.18011165168407816672
print "$(x[4])"
0.51788336540224666482
print "$(y[4])"
0.77428337723387430369
print "$(x[4])"
0.51788336540224666482
print "$(y[4])"
0.77428337723387430369
print "$(x[5])"
1.5418782267051722723
print "$(y[5])"
0.77179827840511372461
print "$(x[5])"
1.5418782267051722723
print "$(y[5])"
0.77179827840511372461
print "$(x[7])"
0.35620886767451914734
print "$(y[7])"
0.90503809737023477311
print "$(x[7])"
0.35620886767451914734
print "$(y[7])"
0.90503809737023477311
print "$(x[4])"
0.51788336540224666482
print "$(y[4])"
0.77428337723387430369
print "$(x[4])"
0.51788336540224666482
print "$(y[4])"
0.77428337723387430369
print "$(x[6])"
0.35823401596138004788
print "$(y[6])"
0.18011165168407816672
print "$(x[6])"
0.35823401596138004788
print "$(y[6])"
0.18011165168407816672
print "$(x[7])"
0.35620886767451914734
print "$(y[7])"
0.90503809737023477311
print "$(x[7])"
0.35620886767451914734
print "$(y[7])"
0.90503809737023477311
print "$(x[5])"
1.5418782267051722723
print "$(y[5])"
0.77179827840511372461
print "$(x[5])"
1.5418782267051722723
print "$(y[5])"
0.77179827840511372461
print "$(x[6])"
0.35823401596138004788
print "$(y[6])"
0.18011165168407816672
print "$(x[6])"
0.35823401596138004788
print "$(y[6])"
0.18011165168407816672
print "$(x[7])"
0.35620886767451914734
print "$(y[7])"
0.90503809737023477311
print "$(x[7])"
0.35620886767451914734
print "$(y[7])"
0.90503809737023477311
Total wall time: 0:00:05
