# LAMMPS data file for rigid bodies 
 
      7     atoms
     11     bonds
     0     angles
     0     dihedrals

     2     atom types 
     11     bond types 
     0     angle types
     0     dihedral types

     -6     6 xlo xhi
     -6     6 ylo yhi
     -6     6 zlo zhi

Masses

     1     1
     2     1

Atoms

     1     1     2     0.8065728713631395     1.7045486369807163     0.0
     2     1     1     0.08938490302505397     1.007668863941572     0.0
     3     1     1     0.0     0.0     0.0
     4     1     1     1.0     0.0     0.0
     5     1     1     1.4140849851466077     0.9102382243545553     0.0
     6     1     1     0.3334691189375881     0.3422201756330006     0.0
     7     1     1     0.9369638175743569     0.6533897021851788     0.0

Bonds

     1     1     5     6
     2     2     4     6
     3     3     2     6
     4     4     1     7
     5     5     4     7
     6     6     3     7
     7     7     1     2
     8     8     2     3
     9     9     3     4
     10     10     4     5
     11     11     5     1

Bond Coeffs

     1     10     1.2208092209580137
     2     10     0.7492516693475676
     3     10     0.7088011436427251
     4     10     1.0592152307507412
     5     10     0.6564233871644395
     6     10     1.1422868721845443
     7     10     1.0
     8     10     1.0116255237221414
     9     10     1.0
     10     10     1.0
     11     10     1.0
