ITEM: TIMESTEP
0
ITEM: NUMBER OF ATOMS
7
ITEM: BOX BOUNDS ff ff pp
-6.0000000000000000e+00 6.0000000000000000e+00
-6.0000000000000000e+00 6.0000000000000000e+00
-6.0000000000000000e+00 6.0000000000000000e+00
ITEM: ATOMS id type xs ys zs
1 2 0.504751 0.501845 0.5
2 1 0.578283 0.5 0.5
3 1 0.529727 0.557049 0.5
4 1 0.464051 0.510498 0.5
5 1 0.462489 0.4363 0.5
6 1 0.572981 0.502966 0.5
7 1 0.516367 0.519032 0.5
ITEM: TIMESTEP
10
ITEM: NUMBER OF ATOMS
7
ITEM: BOX BOUNDS ff ff pp
-6.0000000000000000e+00 6.0000000000000000e+00
-6.0000000000000000e+00 6.0000000000000000e+00
-6.0000000000000000e+00 6.0000000000000000e+00
ITEM: ATOMS id type xs ys zs
1 2 0.501845 0.505584 0.5
2 1 0.583902 0.495147 0.5
3 1 0.530567 0.560433 0.5
4 1 0.461559 0.510391 0.5
5 1 0.472371 0.426662 0.5
6 1 0.581574 0.501685 0.5
7 1 0.520757 0.521132 0.5
ITEM: TIMESTEP
20
ITEM: NUMBER OF ATOMS
7
ITEM: BOX BOUNDS ff ff pp
-6.0000000000000000e+00 6.0000000000000000e+00
-6.0000000000000000e+00 6.0000000000000000e+00
-6.0000000000000000e+00 6.0000000000000000e+00
ITEM: ATOMS id type xs ys zs
1 2 0.502873 0.505855 0.5
2 1 0.584685 0.494748 0.5
3 1 0.531449 0.560083 0.5
4 1 0.462615 0.508961 0.5
5 1 0.477993 0.425598 0.5
6 1 0.582211 0.501252 0.5
7 1 0.522163 0.521363 0.5
ITEM: TIMESTEP
30
ITEM: NUMBER OF ATOMS
7
ITEM: BOX BOUNDS ff ff pp
-6.0000000000000000e+00 6.0000000000000000e+00
-6.0000000000000000e+00 6.0000000000000000e+00
-6.0000000000000000e+00 6.0000000000000000e+00
ITEM: ATOMS id type xs ys zs
1 2 0.503462 0.505597 0.5
2 1 0.585461 0.495032 0.5
3 1 0.531576 0.559907 0.5
4 1 0.462914 0.508468 0.5
5 1 0.479373 0.425187 0.5
6 1 0.582625 0.501308 0.5
7 1 0.522766 0.521194 0.5
ITEM: TIMESTEP
40
ITEM: NUMBER OF ATOMS
7
ITEM: BOX BOUNDS ff ff pp
-6.0000000000000000e+00 6.0000000000000000e+00
-6.0000000000000000e+00 6.0000000000000000e+00
-6.0000000000000000e+00 6.0000000000000000e+00
ITEM: ATOMS id type xs ys zs
1 2 0.505243 0.505998 0.5
2 1 0.586771 0.493901 0.5
3 1 0.533463 0.559395 0.5
4 1 0.465622 0.505473 0.5
5 1 0.489791 0.423452 0.5
6 1 0.584674 0.500526 0.5
7 1 0.522728 0.522353 0.5
ITEM: TIMESTEP
50
ITEM: NUMBER OF ATOMS
7
ITEM: BOX BOUNDS ff ff pp
-6.0000000000000000e+00 6.0000000000000000e+00
-6.0000000000000000e+00 6.0000000000000000e+00
-6.0000000000000000e+00 6.0000000000000000e+00
ITEM: ATOMS id type xs ys zs
1 2 0.509121 0.50674 0.5
2 1 0.589744 0.490839 0.5
3 1 0.53794 0.556918 0.5
4 1 0.470802 0.50057 0.5
5 1 0.508327 0.422756 0.5
6 1 0.588889 0.498005 0.5
7 1 0.51467 0.526591 0.5
ITEM: TIMESTEP
60
ITEM: NUMBER OF ATOMS
7
ITEM: BOX BOUNDS ff ff pp
-6.0000000000000000e+00 6.0000000000000000e+00
-6.0000000000000000e+00 6.0000000000000000e+00
-6.0000000000000000e+00 6.0000000000000000e+00
ITEM: ATOMS id type xs ys zs
1 2 0.515537 0.508033 0.5
2 1 0.595047 0.486284 0.5
3 1 0.541453 0.549911 0.5
4 1 0.476924 0.494089 0.5
5 1 0.530775 0.427288 0.5
6 1 0.595075 0.493909 0.5
7 1 0.501863 0.532562 0.5
ITEM: TIMESTEP
70
ITEM: NUMBER OF ATOMS
7
ITEM: BOX BOUNDS ff ff pp
-6.0000000000000000e+00 6.0000000000000000e+00
-6.0000000000000000e+00 6.0000000000000000e+00
-6.0000000000000000e+00 6.0000000000000000e+00
ITEM: ATOMS id type xs ys zs
1 2 0.523455 0.516824 0.5
2 1 0.598707 0.480477 0.5
3 1 0.540146 0.539575 0.5
4 1 0.477425 0.484236 0.5
5 1 0.550695 0.440163 0.5
6 1 0.597587 0.487932 0.5
7 1 0.498071 0.534685 0.5
ITEM: TIMESTEP
80
ITEM: NUMBER OF ATOMS
7
ITEM: BOX BOUNDS ff ff pp
-6.0000000000000000e+00 6.0000000000000000e+00
-6.0000000000000000e+00 6.0000000000000000e+00
-6.0000000000000000e+00 6.0000000000000000e+00
ITEM: ATOMS id type xs ys zs
1 2 0.533684 0.53127 0.5
2 1 0.593441 0.472363 0.5
3 1 0.536016 0.531873 0.5
4 1 0.47343 0.476216 0.5
5 1 0.554919 0.452103 0.5
6 1 0.593773 0.480138 0.5
7 1 0.494882 0.54158 0.5
ITEM: TIMESTEP
90
ITEM: NUMBER OF ATOMS
7
ITEM: BOX BOUNDS ff ff pp
-6.0000000000000000e+00 6.0000000000000000e+00
-6.0000000000000000e+00 6.0000000000000000e+00
-6.0000000000000000e+00 6.0000000000000000e+00
ITEM: ATOMS id type xs ys zs
1 2 0.544822 0.53861 0.5
2 1 0.590281 0.468314 0.5
3 1 0.532738 0.528012 0.5
4 1 0.469086 0.473932 0.5
5 1 0.550996 0.455626 0.5
6 1 0.590531 0.47584 0.5
7 1 0.494647 0.547171 0.5
ITEM: TIMESTEP
100
ITEM: NUMBER OF ATOMS
7
ITEM: BOX BOUNDS ff ff pp
-6.0000000000000000e+00 6.0000000000000000e+00
-6.0000000000000000e+00 6.0000000000000000e+00
-6.0000000000000000e+00 6.0000000000000000e+00
ITEM: ATOMS id type xs ys zs
1 2 0.548328 0.53944 0.5
2 1 0.592223 0.468061 0.5
3 1 0.53317 0.526435 0.5
4 1 0.470108 0.471817 0.5
5 1 0.552294 0.456025 0.5
6 1 0.591834 0.475382 0.5
7 1 0.495864 0.547363 0.5
ITEM: TIMESTEP
110
ITEM: NUMBER OF ATOMS
7
ITEM: BOX BOUNDS ff ff pp
-6.0000000000000000e+00 6.0000000000000000e+00
-6.0000000000000000e+00 6.0000000000000000e+00
-6.0000000000000000e+00 6.0000000000000000e+00
ITEM: ATOMS id type xs ys zs
1 2 0.553866 0.539457 0.5
2 1 0.599561 0.469133 0.5
3 1 0.53641 0.523153 0.5
4 1 0.476946 0.464723 0.5
5 1 0.560149 0.456095 0.5
6 1 0.598319 0.476208 0.5
7 1 0.499247 0.544437 0.5
ITEM: TIMESTEP
120
ITEM: NUMBER OF ATOMS
7
ITEM: BOX BOUNDS ff ff pp
-6.0000000000000000e+00 6.0000000000000000e+00
-6.0000000000000000e+00 6.0000000000000000e+00
-6.0000000000000000e+00 6.0000000000000000e+00
ITEM: ATOMS id type xs ys zs
1 2 0.555985 0.538659 0.5
2 1 0.605346 0.470788 0.5
3 1 0.539062 0.52102 0.5
4 1 0.48252 0.459795 0.5
5 1 0.565982 0.455699 0.5
6 1 0.603269 0.477535 0.5
7 1 0.501555 0.54158 0.5
ITEM: TIMESTEP
130
ITEM: NUMBER OF ATOMS
7
ITEM: BOX BOUNDS ff ff pp
-6.0000000000000000e+00 6.0000000000000000e+00
-6.0000000000000000e+00 6.0000000000000000e+00
-6.0000000000000000e+00 6.0000000000000000e+00
ITEM: ATOMS id type xs ys zs
1 2 0.556742 0.538129 0.5
2 1 0.608128 0.47171 0.5
3 1 0.54031 0.519963 0.5
4 1 0.48515 0.457465 0.5
5 1 0.568649 0.455455 0.5
6 1 0.605542 0.478202 0.5
7 1 0.502785 0.540373 0.5
ITEM: TIMESTEP
140
ITEM: NUMBER OF ATOMS
7
ITEM: BOX BOUNDS ff ff pp
-6.0000000000000000e+00 6.0000000000000000e+00
-6.0000000000000000e+00 6.0000000000000000e+00
-6.0000000000000000e+00 6.0000000000000000e+00
ITEM: ATOMS id type xs ys zs
1 2 0.555513 0.538294 0.5
2 1 0.60611 0.471237 0.5
3 1 0.5391 0.520687 0.5
4 1 0.482539 0.459429 0.5
5 1 0.56594 0.455446 0.5
6 1 0.603423 0.477643 0.5
7 1 0.502159 0.542045 0.5
ITEM: TIMESTEP
150
ITEM: NUMBER OF ATOMS
7
ITEM: BOX BOUNDS ff ff pp
-6.0000000000000000e+00 6.0000000000000000e+00
-6.0000000000000000e+00 6.0000000000000000e+00
-6.0000000000000000e+00 6.0000000000000000e+00
ITEM: ATOMS id type xs ys zs
1 2 0.551219 0.538464 0.5
2 1 0.600443 0.470399 0.5
3 1 0.535935 0.523122 0.5
4 1 0.475906 0.465286 0.5
5 1 0.558773 0.45536 0.5
6 1 0.597689 0.476704 0.5
7 1 0.499581 0.545249 0.5
ITEM: TIMESTEP
160
ITEM: NUMBER OF ATOMS
7
ITEM: BOX BOUNDS ff ff pp
-6.0000000000000000e+00 6.0000000000000000e+00
-6.0000000000000000e+00 6.0000000000000000e+00
-6.0000000000000000e+00 6.0000000000000000e+00
ITEM: ATOMS id type xs ys zs
1 2 0.548395 0.538007 0.5
2 1 0.598677 0.470671 0.5
3 1 0.534937 0.524321 0.5
4 1 0.47373 0.467765 0.5
5 1 0.55613 0.454981 0.5
6 1 0.595737 0.476846 0.5
7 1 0.49827 0.545795 0.5
ITEM: TIMESTEP
170
ITEM: NUMBER OF ATOMS
7
ITEM: BOX BOUNDS ff ff pp
-6.0000000000000000e+00 6.0000000000000000e+00
-6.0000000000000000e+00 6.0000000000000000e+00
-6.0000000000000000e+00 6.0000000000000000e+00
ITEM: ATOMS id type xs ys zs
1 2 0.546754 0.537645 0.5
2 1 0.597897 0.470954 0.5
3 1 0.5345 0.525026 0.5
4 1 0.472742 0.469075 0.5
5 1 0.554853 0.454677 0.5
6 1 0.594845 0.477052 0.5
7 1 0.497496 0.545847 0.5
ITEM: TIMESTEP
180
ITEM: NUMBER OF ATOMS
7
ITEM: BOX BOUNDS ff ff pp
-6.0000000000000000e+00 6.0000000000000000e+00
-6.0000000000000000e+00 6.0000000000000000e+00
-6.0000000000000000e+00 6.0000000000000000e+00
ITEM: ATOMS id type xs ys zs
1 2 0.546954 0.53768 0.5
2 1 0.598044 0.470936 0.5
3 1 0.534554 0.524893 0.5
4 1 0.47287 0.46886 0.5
5 1 0.555013 0.454716 0.5
6 1 0.594961 0.477013 0.5
7 1 0.497669 0.545905 0.5
ITEM: TIMESTEP
190
ITEM: NUMBER OF ATOMS
7
ITEM: BOX BOUNDS ff ff pp
-6.0000000000000000e+00 6.0000000000000000e+00
-6.0000000000000000e+00 6.0000000000000000e+00
-6.0000000000000000e+00 6.0000000000000000e+00
ITEM: ATOMS id type xs ys zs
1 2 0.546648 0.537591 0.5
2 1 0.597947 0.471014 0.5
3 1 0.534482 0.525013 0.5
4 1 0.472698 0.469086 0.5
5 1 0.554788 0.454643 0.5
6 1 0.594814 0.477058 0.5
7 1 0.497551 0.545915 0.5
ITEM: TIMESTEP
200
ITEM: NUMBER OF ATOMS
7
ITEM: BOX BOUNDS ff ff pp
-6.0000000000000000e+00 6.0000000000000000e+00
-6.0000000000000000e+00 6.0000000000000000e+00
-6.0000000000000000e+00 6.0000000000000000e+00
ITEM: ATOMS id type xs ys zs
1 2 0.545525 0.537294 0.5
2 1 0.597522 0.471257 0.5
3 1 0.534265 0.525517 0.5
4 1 0.47214 0.469973 0.5
5 1 0.554009 0.454384 0.5
6 1 0.594308 0.477243 0.5
7 1 0.497002 0.545808 0.5
ITEM: TIMESTEP
210
ITEM: NUMBER OF ATOMS
7
ITEM: BOX BOUNDS ff ff pp
-6.0000000000000000e+00 6.0000000000000000e+00
-6.0000000000000000e+00 6.0000000000000000e+00
-6.0000000000000000e+00 6.0000000000000000e+00
ITEM: ATOMS id type xs ys zs
1 2 0.545309 0.537232 0.5
2 1 0.597456 0.471309 0.5
3 1 0.534232 0.52561 0.5
4 1 0.472047 0.470135 0.5
5 1 0.553873 0.454331 0.5
6 1 0.594221 0.477279 0.5
7 1 0.496906 0.545782 0.5
ITEM: TIMESTEP
220
ITEM: NUMBER OF ATOMS
7
ITEM: BOX BOUNDS ff ff pp
-6.0000000000000000e+00 6.0000000000000000e+00
-6.0000000000000000e+00 6.0000000000000000e+00
-6.0000000000000000e+00 6.0000000000000000e+00
ITEM: ATOMS id type xs ys zs
1 2 0.546666 0.537632 0.5
2 1 0.597931 0.47101 0.5
3 1 0.534425 0.524958 0.5
4 1 0.472643 0.469033 0.5
5 1 0.554753 0.454695 0.5
6 1 0.594752 0.477018 0.5
7 1 0.497591 0.54602 0.5
ITEM: TIMESTEP
230
ITEM: NUMBER OF ATOMS
7
ITEM: BOX BOUNDS ff ff pp
-6.0000000000000000e+00 6.0000000000000000e+00
-6.0000000000000000e+00 6.0000000000000000e+00
-6.0000000000000000e+00 6.0000000000000000e+00
ITEM: ATOMS id type xs ys zs
1 2 0.545274 0.537177 0.5
2 1 0.597517 0.471354 0.5
3 1 0.534258 0.525623 0.5
4 1 0.47206 0.470154 0.5
5 1 0.553852 0.454271 0.5
6 1 0.59425 0.477303 0.5
7 1 0.496939 0.545767 0.5
ITEM: TIMESTEP
240
ITEM: NUMBER OF ATOMS
7
ITEM: BOX BOUNDS ff ff pp
-6.0000000000000000e+00 6.0000000000000000e+00
-6.0000000000000000e+00 6.0000000000000000e+00
-6.0000000000000000e+00 6.0000000000000000e+00
ITEM: ATOMS id type xs ys zs
1 2 0.543109 0.536322 0.5
2 1 0.597136 0.471982 0.5
3 1 0.534181 0.526653 0.5
4 1 0.47143 0.471811 0.5
5 1 0.552688 0.45351 0.5
6 1 0.593705 0.477816 0.5
7 1 0.496045 0.545183 0.5
ITEM: TIMESTEP
250
ITEM: NUMBER OF ATOMS
7
ITEM: BOX BOUNDS ff ff pp
-6.0000000000000000e+00 6.0000000000000000e+00
-6.0000000000000000e+00 6.0000000000000000e+00
-6.0000000000000000e+00 6.0000000000000000e+00
ITEM: ATOMS id type xs ys zs
1 2 0.541066 0.535252 0.5
2 1 0.597135 0.472729 0.5
3 1 0.534357 0.527649 0.5
4 1 0.471181 0.473298 0.5
5 1 0.551825 0.452577 0.5
6 1 0.593511 0.478418 0.5
7 1 0.495434 0.544409 0.5
ITEM: TIMESTEP
260
ITEM: NUMBER OF ATOMS
7
ITEM: BOX BOUNDS ff ff pp
-6.0000000000000000e+00 6.0000000000000000e+00
-6.0000000000000000e+00 6.0000000000000000e+00
-6.0000000000000000e+00 6.0000000000000000e+00
ITEM: ATOMS id type xs ys zs
1 2 0.53952 0.534015 0.5
2 1 0.597701 0.473539 0.5
3 1 0.534887 0.528455 0.5
4 1 0.471435 0.474385 0.5
5 1 0.551359 0.451424 0.5
6 1 0.593848 0.479059 0.5
7 1 0.495382 0.543559 0.5
ITEM: TIMESTEP
270
ITEM: NUMBER OF ATOMS
7
ITEM: BOX BOUNDS ff ff pp
-6.0000000000000000e+00 6.0000000000000000e+00
-6.0000000000000000e+00 6.0000000000000000e+00
-6.0000000000000000e+00 6.0000000000000000e+00
ITEM: ATOMS id type xs ys zs
1 2 0.539008 0.533654 0.5
2 1 0.597871 0.473719 0.5
3 1 0.535078 0.528668 0.5
4 1 0.471522 0.474778 0.5
5 1 0.551398 0.451241 0.5
6 1 0.593886 0.479119 0.5
7 1 0.495306 0.543276 0.5
ITEM: TIMESTEP
280
ITEM: NUMBER OF ATOMS
7
ITEM: BOX BOUNDS ff ff pp
-6.0000000000000000e+00 6.0000000000000000e+00
-6.0000000000000000e+00 6.0000000000000000e+00
-6.0000000000000000e+00 6.0000000000000000e+00
ITEM: ATOMS id type xs ys zs
1 2 0.537216 0.532072 0.5
2 1 0.598585 0.474778 0.5
3 1 0.535717 0.529685 0.5
4 1 0.471881 0.476078 0.5
5 1 0.550785 0.449768 0.5
6 1 0.594324 0.479948 0.5
7 1 0.495294 0.5422 0.5
ITEM: TIMESTEP
290
ITEM: NUMBER OF ATOMS
7
ITEM: BOX BOUNDS ff ff pp
-6.0000000000000000e+00 6.0000000000000000e+00
-6.0000000000000000e+00 6.0000000000000000e+00
-6.0000000000000000e+00 6.0000000000000000e+00
ITEM: ATOMS id type xs ys zs
1 2 0.537392 0.532288 0.5
2 1 0.598462 0.474577 0.5
3 1 0.535671 0.529575 0.5
4 1 0.471851 0.475994 0.5
5 1 0.551041 0.450089 0.5
6 1 0.594199 0.47972 0.5
7 1 0.495222 0.542274 0.5
ITEM: TIMESTEP
300
ITEM: NUMBER OF ATOMS
7
ITEM: BOX BOUNDS ff ff pp
-6.0000000000000000e+00 6.0000000000000000e+00
-6.0000000000000000e+00 6.0000000000000000e+00
-6.0000000000000000e+00 6.0000000000000000e+00
ITEM: ATOMS id type xs ys zs
1 2 0.53648 0.53143 0.5
2 1 0.598817 0.475169 0.5
3 1 0.535978 0.530133 0.5
4 1 0.472041 0.476664 0.5
5 1 0.550637 0.449255 0.5
6 1 0.594444 0.480221 0.5
7 1 0.495233 0.541704 0.5
ITEM: TIMESTEP
310
ITEM: NUMBER OF ATOMS
7
ITEM: BOX BOUNDS ff ff pp
-6.0000000000000000e+00 6.0000000000000000e+00
-6.0000000000000000e+00 6.0000000000000000e+00
-6.0000000000000000e+00 6.0000000000000000e+00
ITEM: ATOMS id type xs ys zs
1 2 0.535734 0.530794 0.5
2 1 0.599062 0.475578 0.5
3 1 0.536208 0.530535 0.5
4 1 0.472164 0.477223 0.5
5 1 0.550439 0.44875 0.5
6 1 0.594553 0.480498 0.5
7 1 0.495188 0.541276 0.5
ITEM: TIMESTEP
320
ITEM: NUMBER OF ATOMS
7
ITEM: BOX BOUNDS ff ff pp
-6.0000000000000000e+00 6.0000000000000000e+00
-6.0000000000000000e+00 6.0000000000000000e+00
-6.0000000000000000e+00 6.0000000000000000e+00
ITEM: ATOMS id type xs ys zs
1 2 0.535279 0.530429 0.5
2 1 0.599132 0.475826 0.5
3 1 0.536297 0.530815 0.5
4 1 0.472202 0.477561 0.5
5 1 0.550253 0.448434 0.5
6 1 0.594576 0.480694 0.5
7 1 0.495133 0.541027 0.5
ITEM: TIMESTEP
330
ITEM: NUMBER OF ATOMS
7
ITEM: BOX BOUNDS ff ff pp
-6.0000000000000000e+00 6.0000000000000000e+00
-6.0000000000000000e+00 6.0000000000000000e+00
-6.0000000000000000e+00 6.0000000000000000e+00
ITEM: ATOMS id type xs ys zs
1 2 0.535393 0.530532 0.5
2 1 0.599096 0.475726 0.5
3 1 0.536286 0.530738 0.5
4 1 0.472208 0.477471 0.5
5 1 0.550365 0.448558 0.5
6 1 0.594565 0.480616 0.5
7 1 0.49515 0.541092 0.5
ITEM: TIMESTEP
340
ITEM: NUMBER OF ATOMS
7
ITEM: BOX BOUNDS ff ff pp
-6.0000000000000000e+00 6.0000000000000000e+00
-6.0000000000000000e+00 6.0000000000000000e+00
-6.0000000000000000e+00 6.0000000000000000e+00
ITEM: ATOMS id type xs ys zs
1 2 0.536118 0.531099 0.5
2 1 0.598956 0.475284 0.5
3 1 0.536187 0.530326 0.5
4 1 0.472206 0.47694 0.5
5 1 0.550769 0.449088 0.5
6 1 0.594541 0.480285 0.5
7 1 0.495251 0.541445 0.5
ITEM: TIMESTEP
350
ITEM: NUMBER OF ATOMS
7
ITEM: BOX BOUNDS ff ff pp
-6.0000000000000000e+00 6.0000000000000000e+00
-6.0000000000000000e+00 6.0000000000000000e+00
-6.0000000000000000e+00 6.0000000000000000e+00
ITEM: ATOMS id type xs ys zs
1 2 0.537217 0.531953 0.5
2 1 0.598727 0.474623 0.5
3 1 0.536019 0.529708 0.5
4 1 0.472195 0.476144 0.5
5 1 0.551341 0.449878 0.5
6 1 0.594502 0.479804 0.5
7 1 0.495393 0.541975 0.5
ITEM: TIMESTEP
360
ITEM: NUMBER OF ATOMS
7
ITEM: BOX BOUNDS ff ff pp
-6.0000000000000000e+00 6.0000000000000000e+00
-6.0000000000000000e+00 6.0000000000000000e+00
-6.0000000000000000e+00 6.0000000000000000e+00
ITEM: ATOMS id type xs ys zs
1 2 0.541234 0.534514 0.5
2 1 0.598174 0.472708 0.5
3 1 0.535501 0.527698 0.5
4 1 0.472427 0.47326 0.5
5 1 0.553098 0.452153 0.5
6 1 0.594591 0.478419 0.5
7 1 0.496273 0.54369 0.5
ITEM: TIMESTEP
370
ITEM: NUMBER OF ATOMS
7
ITEM: BOX BOUNDS ff ff pp
-6.0000000000000000e+00 6.0000000000000000e+00
-6.0000000000000000e+00 6.0000000000000000e+00
-6.0000000000000000e+00 6.0000000000000000e+00
ITEM: ATOMS id type xs ys zs
1 2 0.545299 0.536172 0.5
2 1 0.599032 0.471521 0.5
3 1 0.535747 0.525709 0.5
4 1 0.473587 0.470199 0.5
5 1 0.555216 0.453481 0.5
6 1 0.595741 0.477467 0.5
7 1 0.497899 0.544771 0.5
ITEM: TIMESTEP
380
ITEM: NUMBER OF ATOMS
7
ITEM: BOX BOUNDS ff ff pp
-6.0000000000000000e+00 6.0000000000000000e+00
-6.0000000000000000e+00 6.0000000000000000e+00
-6.0000000000000000e+00 6.0000000000000000e+00
ITEM: ATOMS id type xs ys zs
1 2 0.545368 0.536204 0.5
2 1 0.599056 0.471525 0.5
3 1 0.53574 0.525713 0.5
4 1 0.473571 0.470213 0.5
5 1 0.555199 0.453474 0.5
6 1 0.59575 0.477455 0.5
7 1 0.497853 0.544732 0.5
ITEM: TIMESTEP
390
ITEM: NUMBER OF ATOMS
7
ITEM: BOX BOUNDS ff ff pp
-6.0000000000000000e+00 6.0000000000000000e+00
-6.0000000000000000e+00 6.0000000000000000e+00
-6.0000000000000000e+00 6.0000000000000000e+00
ITEM: ATOMS id type xs ys zs
1 2 0.545054 0.536108 0.5
2 1 0.598946 0.471607 0.5
3 1 0.535695 0.52589 0.5
4 1 0.473418 0.470515 0.5
5 1 0.554966 0.453375 0.5
6 1 0.595609 0.477513 0.5
7 1 0.497658 0.544639 0.5
ITEM: TIMESTEP
400
ITEM: NUMBER OF ATOMS
7
ITEM: BOX BOUNDS ff ff pp
-6.0000000000000000e+00 6.0000000000000000e+00
-6.0000000000000000e+00 6.0000000000000000e+00
-6.0000000000000000e+00 6.0000000000000000e+00
ITEM: ATOMS id type xs ys zs
1 2 0.543868 0.535714 0.5
2 1 0.598549 0.471901 0.5
3 1 0.535542 0.526513 0.5
4 1 0.47292 0.471539 0.5
5 1 0.554182 0.453016 0.5
6 1 0.595152 0.477761 0.5
7 1 0.497025 0.544346 0.5
ITEM: TIMESTEP
410
ITEM: NUMBER OF ATOMS
7
ITEM: BOX BOUNDS ff ff pp
-6.0000000000000000e+00 6.0000000000000000e+00
-6.0000000000000000e+00 6.0000000000000000e+00
-6.0000000000000000e+00 6.0000000000000000e+00
ITEM: ATOMS id type xs ys zs
1 2 0.5438 0.535696 0.5
2 1 0.598514 0.47191 0.5
3 1 0.53553 0.526535 0.5
4 1 0.472907 0.47156 0.5
5 1 0.554147 0.452997 0.5
6 1 0.595135 0.477784 0.5
7 1 0.497034 0.544357 0.5
ITEM: TIMESTEP
420
ITEM: NUMBER OF ATOMS
7
ITEM: BOX BOUNDS ff ff pp
-6.0000000000000000e+00 6.0000000000000000e+00
-6.0000000000000000e+00 6.0000000000000000e+00
-6.0000000000000000e+00 6.0000000000000000e+00
ITEM: ATOMS id type xs ys zs
1 2 0.544248 0.535845 0.5
2 1 0.598658 0.471789 0.5
3 1 0.535586 0.526298 0.5
4 1 0.473082 0.471182 0.5
5 1 0.554438 0.45314 0.5
6 1 0.595301 0.477681 0.5
7 1 0.497267 0.544482 0.5
ITEM: TIMESTEP
430
ITEM: NUMBER OF ATOMS
7
ITEM: BOX BOUNDS ff ff pp
-6.0000000000000000e+00 6.0000000000000000e+00
-6.0000000000000000e+00 6.0000000000000000e+00
-6.0000000000000000e+00 6.0000000000000000e+00
ITEM: ATOMS id type xs ys zs
1 2 0.544086 0.535793 0.5
2 1 0.598601 0.47183 0.5
3 1 0.535564 0.526385 0.5
4 1 0.473014 0.471323 0.5
5 1 0.55433 0.453091 0.5
6 1 0.595237 0.477716 0.5
7 1 0.497175 0.544436 0.5
ITEM: TIMESTEP
440
ITEM: NUMBER OF ATOMS
7
ITEM: BOX BOUNDS ff ff pp
-6.0000000000000000e+00 6.0000000000000000e+00
-6.0000000000000000e+00 6.0000000000000000e+00
-6.0000000000000000e+00 6.0000000000000000e+00
ITEM: ATOMS id type xs ys zs
1 2 0.54368 0.535667 0.5
2 1 0.598447 0.471926 0.5
3 1 0.535501 0.526601 0.5
4 1 0.472842 0.471668 0.5
5 1 0.554063 0.452978 0.5
6 1 0.595075 0.477805 0.5
7 1 0.496949 0.544335 0.5
ITEM: TIMESTEP
450
ITEM: NUMBER OF ATOMS
7
ITEM: BOX BOUNDS ff ff pp
-6.0000000000000000e+00 6.0000000000000000e+00
-6.0000000000000000e+00 6.0000000000000000e+00
-6.0000000000000000e+00 6.0000000000000000e+00
ITEM: ATOMS id type xs ys zs
1 2 0.543583 0.535639 0.5
2 1 0.598402 0.471946 0.5
3 1 0.535482 0.526647 0.5
4 1 0.472806 0.471732 0.5
5 1 0.553999 0.45295 0.5
6 1 0.595039 0.477833 0.5
7 1 0.496914 0.544325 0.5
ITEM: TIMESTEP
460
ITEM: NUMBER OF ATOMS
7
ITEM: BOX BOUNDS ff ff pp
-6.0000000000000000e+00 6.0000000000000000e+00
-6.0000000000000000e+00 6.0000000000000000e+00
-6.0000000000000000e+00 6.0000000000000000e+00
ITEM: ATOMS id type xs ys zs
1 2 0.544428 0.535894 0.5
2 1 0.598737 0.471746 0.5
3 1 0.535621 0.526184 0.5
4 1 0.473179 0.470995 0.5
5 1 0.554575 0.453189 0.5
6 1 0.595391 0.477647 0.5
7 1 0.497412 0.544548 0.5
ITEM: TIMESTEP
470
ITEM: NUMBER OF ATOMS
7
ITEM: BOX BOUNDS ff ff pp
-6.0000000000000000e+00 6.0000000000000000e+00
-6.0000000000000000e+00 6.0000000000000000e+00
-6.0000000000000000e+00 6.0000000000000000e+00
ITEM: ATOMS id type xs ys zs
1 2 0.545306 0.536206 0.5
2 1 0.599009 0.471522 0.5
3 1 0.535716 0.525734 0.5
4 1 0.473518 0.470271 0.5
5 1 0.555139 0.453477 0.5
6 1 0.595696 0.477449 0.5
7 1 0.497824 0.544749 0.5
ITEM: TIMESTEP
480
ITEM: NUMBER OF ATOMS
7
ITEM: BOX BOUNDS ff ff pp
-6.0000000000000000e+00 6.0000000000000000e+00
-6.0000000000000000e+00 6.0000000000000000e+00
-6.0000000000000000e+00 6.0000000000000000e+00
ITEM: ATOMS id type xs ys zs
1 2 0.546122 0.536439 0.5
2 1 0.59936 0.471378 0.5
3 1 0.535849 0.525319 0.5
4 1 0.473918 0.469549 0.5
5 1 0.55572 0.453686 0.5
6 1 0.596064 0.477315 0.5
7 1 0.498244 0.544868 0.5
ITEM: TIMESTEP
490
ITEM: NUMBER OF ATOMS
7
ITEM: BOX BOUNDS ff ff pp
-6.0000000000000000e+00 6.0000000000000000e+00
-6.0000000000000000e+00 6.0000000000000000e+00
-6.0000000000000000e+00 6.0000000000000000e+00
ITEM: ATOMS id type xs ys zs
1 2 0.546001 0.536412 0.5
2 1 0.599303 0.471411 0.5
3 1 0.53582 0.5254 0.5
4 1 0.473831 0.469702 0.5
5 1 0.555594 0.453646 0.5
6 1 0.595984 0.47733 0.5
7 1 0.498133 0.544822 0.5
ITEM: TIMESTEP
500
ITEM: NUMBER OF ATOMS
7
ITEM: BOX BOUNDS ff ff pp
-6.0000000000000000e+00 6.0000000000000000e+00
-6.0000000000000000e+00 6.0000000000000000e+00
-6.0000000000000000e+00 6.0000000000000000e+00
ITEM: ATOMS id type xs ys zs
1 2 0.546554 0.536438 0.5
2 1 0.599971 0.471525 0.5
3 1 0.536094 0.525031 0.5
4 1 0.474488 0.468922 0.5
5 1 0.556392 0.453707 0.5
6 1 0.596578 0.477391 0.5
7 1 0.498509 0.544619 0.5
ITEM: TIMESTEP
510
ITEM: NUMBER OF ATOMS
7
ITEM: BOX BOUNDS ff ff pp
-6.0000000000000000e+00 6.0000000000000000e+00
-6.0000000000000000e+00 6.0000000000000000e+00
-6.0000000000000000e+00 6.0000000000000000e+00
ITEM: ATOMS id type xs ys zs
1 2 0.547549 0.536021 0.5
2 1 0.603227 0.473073 0.5
3 1 0.537124 0.523769 0.5
4 1 0.477736 0.465334 0.5
5 1 0.560246 0.453734 0.5
6 1 0.599396 0.47861 0.5
7 1 0.499286 0.542648 0.5
ITEM: TIMESTEP
520
ITEM: NUMBER OF ATOMS
7
ITEM: BOX BOUNDS ff ff pp
-6.0000000000000000e+00 6.0000000000000000e+00
-6.0000000000000000e+00 6.0000000000000000e+00
-6.0000000000000000e+00 6.0000000000000000e+00
ITEM: ATOMS id type xs ys zs
1 2 0.543552 0.533676 0.5
2 1 0.606538 0.478274 0.5
3 1 0.536889 0.524042 0.5
4 1 0.481276 0.461974 0.5
5 1 0.564144 0.452978 0.5
6 1 0.601861 0.483025 0.5
7 1 0.496979 0.537363 0.5
ITEM: TIMESTEP
530
ITEM: NUMBER OF ATOMS
7
ITEM: BOX BOUNDS ff ff pp
-6.0000000000000000e+00 6.0000000000000000e+00
-6.0000000000000000e+00 6.0000000000000000e+00
-6.0000000000000000e+00 6.0000000000000000e+00
ITEM: ATOMS id type xs ys zs
1 2 0.53971 0.531428 0.5
2 1 0.608807 0.483893 0.5
3 1 0.535705 0.524064 0.5
4 1 0.484801 0.45803 0.5
5 1 0.568032 0.453051 0.5
6 1 0.603555 0.487954 0.5
7 1 0.494351 0.531876 0.5
ITEM: TIMESTEP
540
ITEM: NUMBER OF ATOMS
7
ITEM: BOX BOUNDS ff ff pp
-6.0000000000000000e+00 6.0000000000000000e+00
-6.0000000000000000e+00 6.0000000000000000e+00
-6.0000000000000000e+00 6.0000000000000000e+00
ITEM: ATOMS id type xs ys zs
1 2 0.538569 0.530859 0.5
2 1 0.608474 0.484031 0.5
3 1 0.535687 0.524897 0.5
4 1 0.483994 0.459535 0.5
5 1 0.566989 0.452528 0.5
6 1 0.603093 0.487929 0.5
7 1 0.493852 0.531713 0.5
ITEM: TIMESTEP
550
ITEM: NUMBER OF ATOMS
7
ITEM: BOX BOUNDS ff ff pp
-6.0000000000000000e+00 6.0000000000000000e+00
-6.0000000000000000e+00 6.0000000000000000e+00
-6.0000000000000000e+00 6.0000000000000000e+00
ITEM: ATOMS id type xs ys zs
1 2 0.540118 0.531892 0.5
2 1 0.606845 0.48058 0.5
3 1 0.536483 0.525536 0.5
4 1 0.481234 0.463151 0.5
5 1 0.563743 0.451997 0.5
6 1 0.601715 0.484861 0.5
7 1 0.495025 0.535005 0.5
ITEM: TIMESTEP
560
ITEM: NUMBER OF ATOMS
7
ITEM: BOX BOUNDS ff ff pp
-6.0000000000000000e+00 6.0000000000000000e+00
-6.0000000000000000e+00 6.0000000000000000e+00
-6.0000000000000000e+00 6.0000000000000000e+00
ITEM: ATOMS id type xs ys zs
1 2 0.544176 0.533979 0.5
2 1 0.604094 0.474717 0.5
3 1 0.537821 0.5256 0.5
4 1 0.477629 0.46795 0.5
5 1 0.559233 0.451976 0.5
6 1 0.599556 0.479667 0.5
7 1 0.497782 0.540486 0.5
ITEM: TIMESTEP
570
ITEM: NUMBER OF ATOMS
7
ITEM: BOX BOUNDS ff ff pp
-6.0000000000000000e+00 6.0000000000000000e+00
-6.0000000000000000e+00 6.0000000000000000e+00
-6.0000000000000000e+00 6.0000000000000000e+00
ITEM: ATOMS id type xs ys zs
1 2 0.537989 0.530589 0.5
2 1 0.600113 0.474119 0.5
3 1 0.538269 0.530183 0.5
4 1 0.472152 0.47941 0.5
5 1 0.548954 0.447861 0.5
6 1 0.594638 0.477938 0.5
7 1 0.497839 0.542716 0.5
ITEM: TIMESTEP
580
ITEM: NUMBER OF ATOMS
7
ITEM: BOX BOUNDS ff ff pp
-6.0000000000000000e+00 6.0000000000000000e+00
-6.0000000000000000e+00 6.0000000000000000e+00
-6.0000000000000000e+00 6.0000000000000000e+00
ITEM: ATOMS id type xs ys zs
1 2 0.53416 0.528285 0.5
2 1 0.599125 0.475052 0.5
3 1 0.538636 0.532502 0.5
4 1 0.47078 0.484115 0.5
5 1 0.544544 0.445554 0.5
6 1 0.593118 0.478177 0.5
7 1 0.497455 0.542509 0.5
ITEM: TIMESTEP
590
ITEM: NUMBER OF ATOMS
7
ITEM: BOX BOUNDS ff ff pp
-6.0000000000000000e+00 6.0000000000000000e+00
-6.0000000000000000e+00 6.0000000000000000e+00
-6.0000000000000000e+00 6.0000000000000000e+00
ITEM: ATOMS id type xs ys zs
1 2 0.533686 0.527986 0.5
2 1 0.599012 0.47517 0.5
3 1 0.538729 0.532804 0.5
4 1 0.470669 0.484717 0.5
5 1 0.544052 0.445285 0.5
6 1 0.592918 0.478151 0.5
7 1 0.497432 0.542447 0.5
ITEM: TIMESTEP
600
ITEM: NUMBER OF ATOMS
7
ITEM: BOX BOUNDS ff ff pp
-6.0000000000000000e+00 6.0000000000000000e+00
-6.0000000000000000e+00 6.0000000000000000e+00
-6.0000000000000000e+00 6.0000000000000000e+00
ITEM: ATOMS id type xs ys zs
1 2 0.533149 0.527622 0.5
2 1 0.598604 0.475024 0.5
3 1 0.538905 0.533277 0.5
4 1 0.470257 0.485976 0.5
5 1 0.542707 0.444812 0.5
6 1 0.592447 0.47793 0.5
7 1 0.497583 0.54271 0.5
ITEM: TIMESTEP
610
ITEM: NUMBER OF ATOMS
7
ITEM: BOX BOUNDS ff ff pp
-6.0000000000000000e+00 6.0000000000000000e+00
-6.0000000000000000e+00 6.0000000000000000e+00
-6.0000000000000000e+00 6.0000000000000000e+00
ITEM: ATOMS id type xs ys zs
1 2 0.530795 0.525835 0.5
2 1 0.598401 0.476163 0.5
3 1 0.53919 0.534843 0.5
4 1 0.47001 0.488317 0.5
5 1 0.539564 0.442837 0.5
6 1 0.592169 0.478956 0.5
7 1 0.497531 0.542068 0.5
ITEM: TIMESTEP
620
ITEM: NUMBER OF ATOMS
7
ITEM: BOX BOUNDS ff ff pp
-6.0000000000000000e+00 6.0000000000000000e+00
-6.0000000000000000e+00 6.0000000000000000e+00
-6.0000000000000000e+00 6.0000000000000000e+00
ITEM: ATOMS id type xs ys zs
1 2 0.525933 0.520668 0.5
2 1 0.599637 0.480927 0.5
3 1 0.539421 0.538547 0.5
4 1 0.471007 0.49086 0.5
5 1 0.534553 0.437542 0.5
6 1 0.593366 0.483583 0.5
7 1 0.497349 0.53867 0.5
ITEM: TIMESTEP
630
ITEM: NUMBER OF ATOMS
7
ITEM: BOX BOUNDS ff ff pp
-6.0000000000000000e+00 6.0000000000000000e+00
-6.0000000000000000e+00 6.0000000000000000e+00
-6.0000000000000000e+00 6.0000000000000000e+00
ITEM: ATOMS id type xs ys zs
1 2 0.522188 0.511842 0.5
2 1 0.603401 0.489881 0.5
3 1 0.539625 0.543463 0.5
4 1 0.474837 0.49104 0.5
5 1 0.530804 0.428936 0.5
6 1 0.597095 0.492236 0.5
7 1 0.498854 0.531859 0.5
ITEM: TIMESTEP
640
ITEM: NUMBER OF ATOMS
7
ITEM: BOX BOUNDS ff ff pp
-6.0000000000000000e+00 6.0000000000000000e+00
-6.0000000000000000e+00 6.0000000000000000e+00
-6.0000000000000000e+00 6.0000000000000000e+00
ITEM: ATOMS id type xs ys zs
1 2 0.522902 0.512587 0.5
2 1 0.603392 0.48948 0.5
3 1 0.539399 0.542977 0.5
4 1 0.474751 0.490184 0.5
5 1 0.531508 0.429642 0.5
6 1 0.597136 0.49193 0.5
7 1 0.49875 0.532169 0.5
ITEM: TIMESTEP
650
ITEM: NUMBER OF ATOMS
7
ITEM: BOX BOUNDS ff ff pp
-6.0000000000000000e+00 6.0000000000000000e+00
-6.0000000000000000e+00 6.0000000000000000e+00
-6.0000000000000000e+00 6.0000000000000000e+00
ITEM: ATOMS id type xs ys zs
1 2 0.535955 0.517176 0.5
2 1 0.614384 0.486927 0.5
3 1 0.544996 0.532897 0.5
4 1 0.486285 0.473816 0.5
5 1 0.561615 0.437964 0.5
6 1 0.607698 0.488084 0.5
7 1 0.502875 0.528189 0.5
ITEM: TIMESTEP
660
ITEM: NUMBER OF ATOMS
7
ITEM: BOX BOUNDS ff ff pp
-6.0000000000000000e+00 6.0000000000000000e+00
-6.0000000000000000e+00 6.0000000000000000e+00
-6.0000000000000000e+00 6.0000000000000000e+00
ITEM: ATOMS id type xs ys zs
1 2 0.539485 0.516214 0.5
2 1 0.618617 0.487855 0.5
3 1 0.547432 0.531085 0.5
4 1 0.491014 0.469754 0.5
5 1 0.567998 0.437913 0.5
6 1 0.611876 0.488855 0.5
7 1 0.50539 0.525586 0.5
ITEM: TIMESTEP
670
ITEM: NUMBER OF ATOMS
7
ITEM: BOX BOUNDS ff ff pp
-6.0000000000000000e+00 6.0000000000000000e+00
-6.0000000000000000e+00 6.0000000000000000e+00
-6.0000000000000000e+00 6.0000000000000000e+00
ITEM: ATOMS id type xs ys zs
1 2 0.545376 0.517901 0.5
2 1 0.623074 0.486119 0.5
3 1 0.550657 0.5274 0.5
4 1 0.496021 0.464431 0.5
5 1 0.575962 0.440369 0.5
6 1 0.616314 0.48709 0.5
7 1 0.508432 0.524487 0.5
ITEM: TIMESTEP
680
ITEM: NUMBER OF ATOMS
7
ITEM: BOX BOUNDS ff ff pp
-6.0000000000000000e+00 6.0000000000000000e+00
-6.0000000000000000e+00 6.0000000000000000e+00
-6.0000000000000000e+00 6.0000000000000000e+00
ITEM: ATOMS id type xs ys zs
1 2 0.550482 0.521338 0.5
2 1 0.625884 0.484487 0.5
3 1 0.551926 0.523069 0.5
4 1 0.500551 0.45741 0.5
5 1 0.583451 0.445022 0.5
6 1 0.619318 0.485816 0.5
7 1 0.509612 0.523591 0.5
ITEM: TIMESTEP
690
ITEM: NUMBER OF ATOMS
7
ITEM: BOX BOUNDS ff ff pp
-6.0000000000000000e+00 6.0000000000000000e+00
-6.0000000000000000e+00 6.0000000000000000e+00
-6.0000000000000000e+00 6.0000000000000000e+00
ITEM: ATOMS id type xs ys zs
1 2 0.550809 0.521957 0.5
2 1 0.625841 0.484207 0.5
3 1 0.551814 0.522727 0.5
4 1 0.500505 0.457039 0.5
5 1 0.583031 0.44514 0.5
6 1 0.619366 0.485943 0.5
7 1 0.509433 0.52384 0.5
ITEM: TIMESTEP
700
ITEM: NUMBER OF ATOMS
7
ITEM: BOX BOUNDS ff ff pp
-6.0000000000000000e+00 6.0000000000000000e+00
-6.0000000000000000e+00 6.0000000000000000e+00
-6.0000000000000000e+00 6.0000000000000000e+00
ITEM: ATOMS id type xs ys zs
1 2 0.55032 0.523315 0.5
2 1 0.62405 0.483126 0.5
3 1 0.550655 0.522866 0.5
4 1 0.498409 0.457934 0.5
5 1 0.580867 0.44579 0.5
6 1 0.617694 0.485215 0.5
7 1 0.508369 0.525509 0.5
ITEM: TIMESTEP
710
ITEM: NUMBER OF ATOMS
7
ITEM: BOX BOUNDS ff ff pp
-6.0000000000000000e+00 6.0000000000000000e+00
-6.0000000000000000e+00 6.0000000000000000e+00
-6.0000000000000000e+00 6.0000000000000000e+00