ITEM: TIMESTEP
0
ITEM: NUMBER OF ATOMS
7
ITEM: BOX BOUNDS ff ff pp
-6.0000000000000000e+00 6.0000000000000000e+00
-6.0000000000000000e+00 6.0000000000000000e+00
-6.0000000000000000e+00 6.0000000000000000e+00
ITEM: ATOMS id type xs ys zs
1 2 0.501584 0.500615 0.5
2 1 0.58165 0.5 0.5
3 1 0.527421 0.559502 0.5
4 1 0.458443 0.514502 0.5
5 1 0.454573 0.434315 0.5
6 1 0.575847 0.502992 0.5
7 1 0.515296 0.519613 0.5
ITEM: TIMESTEP
10
ITEM: NUMBER OF ATOMS
7
ITEM: BOX BOUNDS ff ff pp
-6.0000000000000000e+00 6.0000000000000000e+00
-6.0000000000000000e+00 6.0000000000000000e+00
-6.0000000000000000e+00 6.0000000000000000e+00
ITEM: ATOMS id type xs ys zs
1 2 0.500587 0.502336 0.5
2 1 0.584184 0.498587 0.5
3 1 0.527819 0.560504 0.5
4 1 0.457593 0.514438 0.5
5 1 0.457513 0.430748 0.5
6 1 0.578701 0.502452 0.5
7 1 0.516971 0.520095 0.5
ITEM: TIMESTEP
20
ITEM: NUMBER OF ATOMS
7
ITEM: BOX BOUNDS ff ff pp
-6.0000000000000000e+00 6.0000000000000000e+00
-6.0000000000000000e+00 6.0000000000000000e+00
-6.0000000000000000e+00 6.0000000000000000e+00
ITEM: ATOMS id type xs ys zs
1 2 0.500945 0.502645 0.5
2 1 0.584427 0.498371 0.5
3 1 0.528115 0.560361 0.5
4 1 0.457958 0.51399 0.5
5 1 0.459256 0.430245 0.5
6 1 0.57901 0.502408 0.5
7 1 0.517663 0.520024 0.5
ITEM: TIMESTEP
30
ITEM: NUMBER OF ATOMS
7
ITEM: BOX BOUNDS ff ff pp
-6.0000000000000000e+00 6.0000000000000000e+00
-6.0000000000000000e+00 6.0000000000000000e+00
-6.0000000000000000e+00 6.0000000000000000e+00
ITEM: ATOMS id type xs ys zs
1 2 0.501118 0.502637 0.5
2 1 0.584638 0.49848 0.5
3 1 0.528144 0.56029 0.5
4 1 0.458025 0.513864 0.5
5 1 0.459675 0.430105 0.5
6 1 0.579129 0.502393 0.5
7 1 0.518015 0.519893 0.5
ITEM: TIMESTEP
40
ITEM: NUMBER OF ATOMS
7
ITEM: BOX BOUNDS ff ff pp
-6.0000000000000000e+00 6.0000000000000000e+00
-6.0000000000000000e+00 6.0000000000000000e+00
-6.0000000000000000e+00 6.0000000000000000e+00
ITEM: ATOMS id type xs ys zs
1 2 0.501643 0.503144 0.5
2 1 0.584986 0.498033 0.5
3 1 0.528692 0.560177 0.5
4 1 0.458843 0.512932 0.5
5 1 0.462924 0.429122 0.5
6 1 0.579798 0.502304 0.5
7 1 0.519211 0.519906 0.5
ITEM: TIMESTEP
50
ITEM: NUMBER OF ATOMS
7
ITEM: BOX BOUNDS ff ff pp
-6.0000000000000000e+00 6.0000000000000000e+00
-6.0000000000000000e+00 6.0000000000000000e+00
-6.0000000000000000e+00 6.0000000000000000e+00
ITEM: ATOMS id type xs ys zs
1 2 0.502722 0.503932 0.5
2 1 0.585723 0.497205 0.5
3 1 0.529808 0.559968 0.5
4 1 0.460526 0.511026 0.5
5 1 0.469441 0.427262 0.5
6 1 0.581147 0.502088 0.5
7 1 0.52097 0.520177 0.5
ITEM: TIMESTEP
60
ITEM: NUMBER OF ATOMS
7
ITEM: BOX BOUNDS ff ff pp
-6.0000000000000000e+00 6.0000000000000000e+00
-6.0000000000000000e+00 6.0000000000000000e+00
-6.0000000000000000e+00 6.0000000000000000e+00
ITEM: ATOMS id type xs ys zs
1 2 0.504548 0.504443 0.5
2 1 0.587192 0.496292 0.5
3 1 0.531568 0.559556 0.5
4 1 0.463072 0.508372 0.5
5 1 0.478076 0.424996 0.5
6 1 0.583277 0.501736 0.5
7 1 0.521299 0.521061 0.5
ITEM: TIMESTEP
70
ITEM: NUMBER OF ATOMS
7
ITEM: BOX BOUNDS ff ff pp
-6.0000000000000000e+00 6.0000000000000000e+00
-6.0000000000000000e+00 6.0000000000000000e+00
-6.0000000000000000e+00 6.0000000000000000e+00
ITEM: ATOMS id type xs ys zs
1 2 0.506931 0.504408 0.5
2 1 0.589353 0.495468 0.5
3 1 0.533799 0.558796 0.5
4 1 0.466004 0.505782 0.5
5 1 0.486157 0.423101 0.5
6 1 0.585906 0.501279 0.5
7 1 0.518516 0.522717 0.5
ITEM: TIMESTEP
80
ITEM: NUMBER OF ATOMS
7
ITEM: BOX BOUNDS ff ff pp
-6.0000000000000000e+00 6.0000000000000000e+00
-6.0000000000000000e+00 6.0000000000000000e+00
-6.0000000000000000e+00 6.0000000000000000e+00
ITEM: ATOMS id type xs ys zs
1 2 0.509803 0.503948 0.5
2 1 0.592203 0.494896 0.5
3 1 0.536074 0.557427 0.5
4 1 0.468978 0.503451 0.5
5 1 0.492939 0.421728 0.5
6 1 0.58889 0.500853 0.5
7 1 0.513642 0.524834 0.5
ITEM: TIMESTEP
90
ITEM: NUMBER OF ATOMS
7
ITEM: BOX BOUNDS ff ff pp
-6.0000000000000000e+00 6.0000000000000000e+00
-6.0000000000000000e+00 6.0000000000000000e+00
-6.0000000000000000e+00 6.0000000000000000e+00
ITEM: ATOMS id type xs ys zs
1 2 0.512028 0.503291 0.5
2 1 0.594691 0.495053 0.5
3 1 0.537112 0.555969 0.5
4 1 0.470515 0.502382 0.5
5 1 0.495214 0.421304 0.5
6 1 0.590912 0.500707 0.5
7 1 0.509468 0.526369 0.5
ITEM: TIMESTEP
100
ITEM: NUMBER OF ATOMS
7
ITEM: BOX BOUNDS ff ff pp
-6.0000000000000000e+00 6.0000000000000000e+00
-6.0000000000000000e+00 6.0000000000000000e+00
-6.0000000000000000e+00 6.0000000000000000e+00
ITEM: ATOMS id type xs ys zs
1 2 0.512983 0.502871 0.5
2 1 0.595893 0.49544 0.5
3 1 0.537268 0.555254 0.5
4 1 0.470809 0.50225 0.5
5 1 0.494802 0.421279 0.5
6 1 0.591616 0.500692 0.5
7 1 0.507484 0.527036 0.5
ITEM: TIMESTEP
110
ITEM: NUMBER OF ATOMS
7
ITEM: BOX BOUNDS ff ff pp
-6.0000000000000000e+00 6.0000000000000000e+00
-6.0000000000000000e+00 6.0000000000000000e+00
-6.0000000000000000e+00 6.0000000000000000e+00
ITEM: ATOMS id type xs ys zs
1 2 0.514581 0.502726 0.5
2 1 0.597701 0.495574 0.5
3 1 0.537631 0.553828 0.5
4 1 0.471489 0.501579 0.5
5 1 0.496301 0.42136 0.5
6 1 0.592861 0.500315 0.5
7 1 0.504663 0.528223 0.5
ITEM: TIMESTEP
120
ITEM: NUMBER OF ATOMS
7
ITEM: BOX BOUNDS ff ff pp
-6.0000000000000000e+00 6.0000000000000000e+00
-6.0000000000000000e+00 6.0000000000000000e+00
-6.0000000000000000e+00 6.0000000000000000e+00
ITEM: ATOMS id type xs ys zs
1 2 0.515562 0.502736 0.5
2 1 0.59895 0.495938 0.5
3 1 0.537689 0.552815 0.5
4 1 0.471587 0.501317 0.5
5 1 0.496725 0.421537 0.5
6 1 0.593445 0.499881 0.5
7 1 0.502944 0.528914 0.5
ITEM: TIMESTEP
130
ITEM: NUMBER OF ATOMS
7
ITEM: BOX BOUNDS ff ff pp
-6.0000000000000000e+00 6.0000000000000000e+00
-6.0000000000000000e+00 6.0000000000000000e+00
-6.0000000000000000e+00 6.0000000000000000e+00
ITEM: ATOMS id type xs ys zs
1 2 0.515963 0.502763 0.5
2 1 0.599559 0.496373 0.5
3 1 0.537605 0.552334 0.5
4 1 0.471424 0.501294 0.5
5 1 0.496573 0.421689 0.5
6 1 0.59356 0.499549 0.5
7 1 0.502395 0.529087 0.5
ITEM: TIMESTEP
140
ITEM: NUMBER OF ATOMS
7
ITEM: BOX BOUNDS ff ff pp
-6.0000000000000000e+00 6.0000000000000000e+00
-6.0000000000000000e+00 6.0000000000000000e+00
-6.0000000000000000e+00 6.0000000000000000e+00
ITEM: ATOMS id type xs ys zs
1 2 0.515654 0.502348 0.5
2 1 0.599394 0.496963 0.5
3 1 0.537373 0.55274 0.5
4 1 0.471067 0.50175 0.5
5 1 0.49467 0.421637 0.5
6 1 0.593197 0.499727 0.5
7 1 0.502901 0.52871 0.5
ITEM: TIMESTEP
150
ITEM: NUMBER OF ATOMS
7
ITEM: BOX BOUNDS ff ff pp
-6.0000000000000000e+00 6.0000000000000000e+00
-6.0000000000000000e+00 6.0000000000000000e+00
-6.0000000000000000e+00 6.0000000000000000e+00
ITEM: ATOMS id type xs ys zs
1 2 0.514931 0.501428 0.5
2 1 0.598794 0.497827 0.5
3 1 0.536951 0.553755 0.5
4 1 0.470524 0.502613 0.5
5 1 0.490943 0.42149 0.5
6 1 0.592532 0.500404 0.5
7 1 0.504065 0.527892 0.5
ITEM: TIMESTEP
160
ITEM: NUMBER OF ATOMS
7
ITEM: BOX BOUNDS ff ff pp
-6.0000000000000000e+00 6.0000000000000000e+00
-6.0000000000000000e+00 6.0000000000000000e+00
-6.0000000000000000e+00 6.0000000000000000e+00
ITEM: ATOMS id type xs ys zs
1 2 0.514897 0.500841 0.5
2 1 0.598804 0.498229 0.5
3 1 0.536815 0.553982 0.5
4 1 0.470454 0.502914 0.5
5 1 0.489269 0.421463 0.5
6 1 0.592493 0.500711 0.5
7 1 0.50389 0.527858 0.5
ITEM: TIMESTEP
170
ITEM: NUMBER OF ATOMS
7
ITEM: BOX BOUNDS ff ff pp
-6.0000000000000000e+00 6.0000000000000000e+00
-6.0000000000000000e+00 6.0000000000000000e+00
-6.0000000000000000e+00 6.0000000000000000e+00
ITEM: ATOMS id type xs ys zs
1 2 0.514885 0.500546 0.5
2 1 0.598816 0.498475 0.5
3 1 0.536715 0.554086 0.5
4 1 0.470369 0.503082 0.5
5 1 0.488341 0.421474 0.5
6 1 0.592457 0.500877 0.5
7 1 0.503874 0.527782 0.5
ITEM: TIMESTEP
180
ITEM: NUMBER OF ATOMS
7
ITEM: BOX BOUNDS ff ff pp
-6.0000000000000000e+00 6.0000000000000000e+00
-6.0000000000000000e+00 6.0000000000000000e+00
-6.0000000000000000e+00 6.0000000000000000e+00
ITEM: ATOMS id type xs ys zs
1 2 0.515082 0.500359 0.5
2 1 0.599033 0.498597 0.5
3 1 0.536713 0.553939 0.5
4 1 0.470429 0.50309 0.5
5 1 0.488041 0.421501 0.5
6 1 0.592609 0.50089 0.5
7 1 0.503384 0.527993 0.5
ITEM: TIMESTEP
190
ITEM: NUMBER OF ATOMS
7
ITEM: BOX BOUNDS ff ff pp
-6.0000000000000000e+00 6.0000000000000000e+00
-6.0000000000000000e+00 6.0000000000000000e+00
-6.0000000000000000e+00 6.0000000000000000e+00
ITEM: ATOMS id type xs ys zs
1 2 0.515104 0.500193 0.5
2 1 0.599074 0.498784 0.5
3 1 0.536635 0.553959 0.5
4 1 0.470346 0.503188 0.5
5 1 0.487491 0.421532 0.5
6 1 0.59259 0.500968 0.5
7 1 0.503393 0.527928 0.5
ITEM: TIMESTEP
200
ITEM: NUMBER OF ATOMS
7
ITEM: BOX BOUNDS ff ff pp
-6.0000000000000000e+00 6.0000000000000000e+00
-6.0000000000000000e+00 6.0000000000000000e+00
-6.0000000000000000e+00 6.0000000000000000e+00
ITEM: ATOMS id type xs ys zs
1 2 0.515091 0.499988 0.5
2 1 0.599078 0.498948 0.5
3 1 0.536589 0.554049 0.5
4 1 0.470319 0.503284 0.5
5 1 0.486927 0.421526 0.5
6 1 0.592567 0.501063 0.5
7 1 0.503384 0.527883 0.5
ITEM: TIMESTEP
210
ITEM: NUMBER OF ATOMS
7
ITEM: BOX BOUNDS ff ff pp
-6.0000000000000000e+00 6.0000000000000000e+00
-6.0000000000000000e+00 6.0000000000000000e+00
-6.0000000000000000e+00 6.0000000000000000e+00
ITEM: ATOMS id type xs ys zs
1 2 0.515113 0.499924 0.5
2 1 0.599104 0.498995 0.5
3 1 0.536579 0.55405 0.5
4 1 0.470317 0.503305 0.5
5 1 0.486776 0.421528 0.5
6 1 0.592581 0.501087 0.5
7 1 0.503327 0.527896 0.5
ITEM: TIMESTEP
220
ITEM: NUMBER OF ATOMS
7
ITEM: BOX BOUNDS ff ff pp
-6.0000000000000000e+00 6.0000000000000000e+00
-6.0000000000000000e+00 6.0000000000000000e+00
-6.0000000000000000e+00 6.0000000000000000e+00
ITEM: ATOMS id type xs ys zs
1 2 0.515248 0.499938 0.5
2 1 0.59924 0.498975 0.5
3 1 0.536601 0.553891 0.5
4 1 0.470367 0.503249 0.5
5 1 0.486949 0.421558 0.5
6 1 0.592689 0.501023 0.5
7 1 0.503024 0.528061 0.5
ITEM: TIMESTEP
230
ITEM: NUMBER OF ATOMS
7
ITEM: BOX BOUNDS ff ff pp
-6.0000000000000000e+00 6.0000000000000000e+00
-6.0000000000000000e+00 6.0000000000000000e+00
-6.0000000000000000e+00 6.0000000000000000e+00
ITEM: ATOMS id type xs ys zs
1 2 0.515126 0.499774 0.5
2 1 0.599129 0.499152 0.5
3 1 0.536515 0.554081 0.5
4 1 0.470256 0.503385 0.5
5 1 0.486315 0.421551 0.5
6 1 0.592563 0.501162 0.5
7 1 0.503359 0.527829 0.5
ITEM: TIMESTEP
240
ITEM: NUMBER OF ATOMS
7
ITEM: BOX BOUNDS ff ff pp
-6.0000000000000000e+00 6.0000000000000000e+00
-6.0000000000000000e+00 6.0000000000000000e+00
-6.0000000000000000e+00 6.0000000000000000e+00
ITEM: ATOMS id type xs ys zs
1 2 0.515029 0.499549 0.5
2 1 0.599034 0.499332 0.5
3 1 0.536432 0.55427 0.5
4 1 0.470179 0.50352 0.5
5 1 0.485609 0.421545 0.5
6 1 0.592466 0.501327 0.5
7 1 0.503605 0.527644 0.5
ITEM: TIMESTEP
250
ITEM: NUMBER OF ATOMS
7
ITEM: BOX BOUNDS ff ff pp
-6.0000000000000000e+00 6.0000000000000000e+00
-6.0000000000000000e+00 6.0000000000000000e+00
-6.0000000000000000e+00 6.0000000000000000e+00
ITEM: ATOMS id type xs ys zs
1 2 0.514974 0.499347 0.5
2 1 0.598976 0.499475 0.5
3 1 0.536363 0.554405 0.5
4 1 0.470131 0.503623 0.5
5 1 0.485026 0.421549 0.5
6 1 0.592409 0.501468 0.5
7 1 0.503748 0.527522 0.5
ITEM: TIMESTEP
260
ITEM: NUMBER OF ATOMS
7
ITEM: BOX BOUNDS ff ff pp
-6.0000000000000000e+00 6.0000000000000000e+00
-6.0000000000000000e+00 6.0000000000000000e+00
-6.0000000000000000e+00 6.0000000000000000e+00
ITEM: ATOMS id type xs ys zs
1 2 0.514883 0.499169 0.5
2 1 0.598886 0.499624 0.5
3 1 0.536283 0.554562 0.5
4 1 0.470047 0.503744 0.5
5 1 0.484422 0.421554 0.5
6 1 0.592316 0.50161 0.5
7 1 0.503979 0.52735 0.5
ITEM: TIMESTEP
270
ITEM: NUMBER OF ATOMS
7
ITEM: BOX BOUNDS ff ff pp
-6.0000000000000000e+00 6.0000000000000000e+00
-6.0000000000000000e+00 6.0000000000000000e+00
-6.0000000000000000e+00 6.0000000000000000e+00
ITEM: ATOMS id type xs ys zs
1 2 0.514974 0.499103 0.5
2 1 0.598969 0.499618 0.5
3 1 0.536309 0.554498 0.5
4 1 0.470116 0.503716 0.5
5 1 0.484417 0.421557 0.5
6 1 0.5924 0.501611 0.5
7 1 0.503722 0.527485 0.5
ITEM: TIMESTEP
280
ITEM: NUMBER OF ATOMS
7
ITEM: BOX BOUNDS ff ff pp
-6.0000000000000000e+00 6.0000000000000000e+00
-6.0000000000000000e+00 6.0000000000000000e+00
-6.0000000000000000e+00 6.0000000000000000e+00
ITEM: ATOMS id type xs ys zs
1 2 0.514889 0.498927 0.5
2 1 0.598886 0.499782 0.5
3 1 0.536222 0.55465 0.5
4 1 0.470018 0.503839 0.5
5 1 0.483801 0.421571 0.5
6 1 0.592304 0.501752 0.5
7 1 0.503974 0.527294 0.5
ITEM: TIMESTEP
290
ITEM: NUMBER OF ATOMS
7
ITEM: BOX BOUNDS ff ff pp
-6.0000000000000000e+00 6.0000000000000000e+00
-6.0000000000000000e+00 6.0000000000000000e+00
-6.0000000000000000e+00 6.0000000000000000e+00
ITEM: ATOMS id type xs ys zs
1 2 0.515052 0.498953 0.5
2 1 0.599046 0.499713 0.5
3 1 0.536282 0.554467 0.5
4 1 0.470114 0.503753 0.5
5 1 0.484095 0.421581 0.5
6 1 0.592451 0.501672 0.5
7 1 0.503552 0.527537 0.5
ITEM: TIMESTEP
300
ITEM: NUMBER OF ATOMS
7
ITEM: BOX BOUNDS ff ff pp
-6.0000000000000000e+00 6.0000000000000000e+00
-6.0000000000000000e+00 6.0000000000000000e+00
-6.0000000000000000e+00 6.0000000000000000e+00
ITEM: ATOMS id type xs ys zs
1 2 0.514998 0.498877 0.5
2 1 0.598997 0.499808 0.5
3 1 0.536232 0.554548 0.5
4 1 0.470051 0.503819 0.5
5 1 0.483787 0.42159 0.5
6 1 0.592388 0.501734 0.5
7 1 0.503723 0.527415 0.5
ITEM: TIMESTEP
310
ITEM: NUMBER OF ATOMS
7
ITEM: BOX BOUNDS ff ff pp
-6.0000000000000000e+00 6.0000000000000000e+00
-6.0000000000000000e+00 6.0000000000000000e+00
-6.0000000000000000e+00 6.0000000000000000e+00
ITEM: ATOMS id type xs ys zs
1 2 0.515044 0.498848 0.5
2 1 0.599043 0.499802 0.5
3 1 0.536255 0.554517 0.5
4 1 0.470094 0.503801 0.5
5 1 0.483807 0.421584 0.5
6 1 0.592434 0.501723 0.5
7 1 0.503574 0.527496 0.5
ITEM: TIMESTEP
320
ITEM: NUMBER OF ATOMS
7
ITEM: BOX BOUNDS ff ff pp
-6.0000000000000000e+00 6.0000000000000000e+00
-6.0000000000000000e+00 6.0000000000000000e+00
-6.0000000000000000e+00 6.0000000000000000e+00
ITEM: ATOMS id type xs ys zs
1 2 0.515068 0.498848 0.5
2 1 0.59907 0.49981 0.5
3 1 0.536253 0.554487 0.5
4 1 0.47009 0.503798 0.5
5 1 0.483812 0.421593 0.5
6 1 0.592449 0.501714 0.5
7 1 0.503531 0.527514 0.5
ITEM: TIMESTEP
330
ITEM: NUMBER OF ATOMS
7
ITEM: BOX BOUNDS ff ff pp
-6.0000000000000000e+00 6.0000000000000000e+00
-6.0000000000000000e+00 6.0000000000000000e+00
-6.0000000000000000e+00 6.0000000000000000e+00
ITEM: ATOMS id type xs ys zs
1 2 0.515118 0.498881 0.5
2 1 0.599121 0.499774 0.5
3 1 0.536281 0.554423 0.5
4 1 0.470127 0.503762 0.5
5 1 0.483967 0.421591 0.5
6 1 0.592496 0.501671 0.5
7 1 0.50339 0.527601 0.5
ITEM: TIMESTEP
340
ITEM: NUMBER OF ATOMS
7
ITEM: BOX BOUNDS ff ff pp
-6.0000000000000000e+00 6.0000000000000000e+00
-6.0000000000000000e+00 6.0000000000000000e+00
-6.0000000000000000e+00 6.0000000000000000e+00
ITEM: ATOMS id type xs ys zs
1 2 0.515165 0.498941 0.5
2 1 0.59917 0.499729 0.5
3 1 0.536305 0.554346 0.5
4 1 0.47015 0.503722 0.5
5 1 0.484166 0.421596 0.5
6 1 0.592539 0.501617 0.5
7 1 0.503273 0.527677 0.5
ITEM: TIMESTEP
350
ITEM: NUMBER OF ATOMS
7
ITEM: BOX BOUNDS ff ff pp
-6.0000000000000000e+00 6.0000000000000000e+00
-6.0000000000000000e+00 6.0000000000000000e+00
-6.0000000000000000e+00 6.0000000000000000e+00
ITEM: ATOMS id type xs ys zs
1 2 0.515205 0.499007 0.5
2 1 0.599214 0.499676 0.5
3 1 0.536339 0.55428 0.5
4 1 0.470184 0.503678 0.5
5 1 0.484386 0.421592 0.5
6 1 0.592579 0.501556 0.5
7 1 0.503149 0.527759 0.5
ITEM: TIMESTEP
360
ITEM: NUMBER OF ATOMS
7
ITEM: BOX BOUNDS ff ff pp
-6.0000000000000000e+00 6.0000000000000000e+00
-6.0000000000000000e+00 6.0000000000000000e+00
-6.0000000000000000e+00 6.0000000000000000e+00
ITEM: ATOMS id type xs ys zs
1 2 0.515367 0.499234 0.5
2 1 0.599381 0.499475 0.5
3 1 0.536449 0.554016 0.5
4 1 0.470303 0.503517 0.5
5 1 0.485174 0.421597 0.5
6 1 0.592737 0.501349 0.5
7 1 0.502683 0.528069 0.5
ITEM: TIMESTEP
370
ITEM: NUMBER OF ATOMS
7
ITEM: BOX BOUNDS ff ff pp
-6.0000000000000000e+00 6.0000000000000000e+00
-6.0000000000000000e+00 6.0000000000000000e+00
-6.0000000000000000e+00 6.0000000000000000e+00
ITEM: ATOMS id type xs ys zs
1 2 0.515388 0.499476 0.5
2 1 0.599409 0.499356 0.5
3 1 0.536482 0.553885 0.5
4 1 0.470292 0.503433 0.5
5 1 0.485738 0.421617 0.5
6 1 0.59275 0.5012 0.5
7 1 0.502684 0.528112 0.5
ITEM: TIMESTEP
380
ITEM: NUMBER OF ATOMS
7
ITEM: BOX BOUNDS ff ff pp
-6.0000000000000000e+00 6.0000000000000000e+00
-6.0000000000000000e+00 6.0000000000000000e+00
-6.0000000000000000e+00 6.0000000000000000e+00
ITEM: ATOMS id type xs ys zs
1 2 0.515255 0.499443 0.5
2 1 0.599279 0.499415 0.5
3 1 0.536441 0.554044 0.5
4 1 0.470225 0.5035 0.5
5 1 0.485504 0.421599 0.5
6 1 0.592632 0.501264 0.5
7 1 0.503026 0.527917 0.5
ITEM: TIMESTEP
390
ITEM: NUMBER OF ATOMS
7
ITEM: BOX BOUNDS ff ff pp
-6.0000000000000000e+00 6.0000000000000000e+00
-6.0000000000000000e+00 6.0000000000000000e+00
-6.0000000000000000e+00 6.0000000000000000e+00
ITEM: ATOMS id type xs ys zs
1 2 0.515206 0.499408 0.5
2 1 0.599226 0.499427 0.5
3 1 0.536433 0.554117 0.5
4 1 0.470221 0.503523 0.5
5 1 0.485396 0.421585 0.5
6 1 0.592597 0.501304 0.5
7 1 0.503122 0.527865 0.5
ITEM: TIMESTEP
400
ITEM: NUMBER OF ATOMS
7
ITEM: BOX BOUNDS ff ff pp
-6.0000000000000000e+00 6.0000000000000000e+00
-6.0000000000000000e+00 6.0000000000000000e+00
-6.0000000000000000e+00 6.0000000000000000e+00
ITEM: ATOMS id type xs ys zs
1 2 0.515117 0.499315 0.5
2 1 0.599133 0.499511 0.5
3 1 0.53638 0.55425 0.5
4 1 0.470158 0.5036 0.5
5 1 0.485039 0.421581 0.5
6 1 0.592513 0.501405 0.5
7 1 0.503375 0.527703 0.5
ITEM: TIMESTEP
410
ITEM: NUMBER OF ATOMS
7
ITEM: BOX BOUNDS ff ff pp
-6.0000000000000000e+00 6.0000000000000000e+00
-6.0000000000000000e+00 6.0000000000000000e+00
-6.0000000000000000e+00 6.0000000000000000e+00
ITEM: ATOMS id type xs ys zs
1 2 0.515168 0.499315 0.5
2 1 0.59918 0.499465 0.5
3 1 0.536413 0.5542 0.5
4 1 0.470216 0.503564 0.5
5 1 0.485152 0.421574 0.5
6 1 0.59257 0.501384 0.5
7 1 0.503197 0.52781 0.5
ITEM: TIMESTEP
420
ITEM: NUMBER OF ATOMS
7
ITEM: BOX BOUNDS ff ff pp
-6.0000000000000000e+00 6.0000000000000000e+00
-6.0000000000000000e+00 6.0000000000000000e+00
-6.0000000000000000e+00 6.0000000000000000e+00
ITEM: ATOMS id type xs ys zs
1 2 0.515188 0.499342 0.5
2 1 0.599199 0.499455 0.5
3 1 0.53641 0.554161 0.5
4 1 0.470206 0.503555 0.5
5 1 0.48521 0.421587 0.5
6 1 0.592582 0.501368 0.5
7 1 0.503174 0.527824 0.5
ITEM: TIMESTEP
430
ITEM: NUMBER OF ATOMS
7
ITEM: BOX BOUNDS ff ff pp
-6.0000000000000000e+00 6.0000000000000000e+00
-6.0000000000000000e+00 6.0000000000000000e+00
-6.0000000000000000e+00 6.0000000000000000e+00
ITEM: ATOMS id type xs ys zs
1 2 0.51517 0.499322 0.5
2 1 0.599183 0.499473 0.5
3 1 0.536403 0.55419 0.5
4 1 0.4702 0.503569 0.5
5 1 0.485144 0.421583 0.5
6 1 0.592567 0.501383 0.5
7 1 0.503211 0.527799 0.5
ITEM: TIMESTEP
440
ITEM: NUMBER OF ATOMS
7
ITEM: BOX BOUNDS ff ff pp
-6.0000000000000000e+00 6.0000000000000000e+00
-6.0000000000000000e+00 6.0000000000000000e+00
-6.0000000000000000e+00 6.0000000000000000e+00
ITEM: ATOMS id type xs ys zs
1 2 0.515144 0.499286 0.5
2 1 0.599156 0.499505 0.5
3 1 0.536386 0.554233 0.5
4 1 0.470181 0.503595 0.5
5 1 0.485017 0.421581 0.5
6 1 0.592541 0.501415 0.5
7 1 0.503285 0.52775 0.5
ITEM: TIMESTEP
450
ITEM: NUMBER OF ATOMS
7
ITEM: BOX BOUNDS ff ff pp
-6.0000000000000000e+00 6.0000000000000000e+00
-6.0000000000000000e+00 6.0000000000000000e+00
-6.0000000000000000e+00 6.0000000000000000e+00
ITEM: ATOMS id type xs ys zs
1 2 0.515151 0.499275 0.5
2 1 0.599163 0.499503 0.5
3 1 0.536392 0.554232 0.5
4 1 0.470193 0.503593 0.5
5 1 0.485009 0.421578 0.5
6 1 0.59255 0.501418 0.5
7 1 0.503252 0.527768 0.5
ITEM: TIMESTEP
460
ITEM: NUMBER OF ATOMS
7
ITEM: BOX BOUNDS ff ff pp
-6.0000000000000000e+00 6.0000000000000000e+00
-6.0000000000000000e+00 6.0000000000000000e+00
-6.0000000000000000e+00 6.0000000000000000e+00
ITEM: ATOMS id type xs ys zs
1 2 0.515215 0.499337 0.5
2 1 0.599227 0.499442 0.5
3 1 0.536425 0.554137 0.5
4 1 0.470232 0.503542 0.5
5 1 0.485243 0.421585 0.5
6 1 0.59261 0.501356 0.5
7 1 0.503076 0.527878 0.5
ITEM: TIMESTEP
470
ITEM: NUMBER OF ATOMS
7
ITEM: BOX BOUNDS ff ff pp
-6.0000000000000000e+00 6.0000000000000000e+00
-6.0000000000000000e+00 6.0000000000000000e+00
-6.0000000000000000e+00 6.0000000000000000e+00
ITEM: ATOMS id type xs ys zs
1 2 0.515253 0.499407 0.5
2 1 0.599267 0.49939 0.5
3 1 0.536452 0.554067 0.5
4 1 0.470256 0.503502 0.5
5 1 0.485458 0.421588 0.5
6 1 0.592645 0.501296 0.5
7 1 0.502966 0.527953 0.5
ITEM: TIMESTEP
480
ITEM: NUMBER OF ATOMS
7
ITEM: BOX BOUNDS ff ff pp
-6.0000000000000000e+00 6.0000000000000000e+00
-6.0000000000000000e+00 6.0000000000000000e+00
-6.0000000000000000e+00 6.0000000000000000e+00
ITEM: ATOMS id type xs ys zs
1 2 0.515281 0.499473 0.5
2 1 0.599293 0.499346 0.5
3 1 0.536461 0.554001 0.5
4 1 0.470262 0.503469 0.5
5 1 0.485643 0.421605 0.5
6 1 0.592666 0.501246 0.5
7 1 0.50291 0.528 0.5
ITEM: TIMESTEP
490
ITEM: NUMBER OF ATOMS
7
ITEM: BOX BOUNDS ff ff pp
-6.0000000000000000e+00 6.0000000000000000e+00
-6.0000000000000000e+00 6.0000000000000000e+00
-6.0000000000000000e+00 6.0000000000000000e+00
ITEM: ATOMS id type xs ys zs
1 2 0.515239 0.499462 0.5
2 1 0.599256 0.499365 0.5
3 1 0.536458 0.554057 0.5
4 1 0.470251 0.503488 0.5
5 1 0.485575 0.421591 0.5
6 1 0.592633 0.501261 0.5
7 1 0.502998 0.527948 0.5
ITEM: TIMESTEP
500
ITEM: NUMBER OF ATOMS
7
ITEM: BOX BOUNDS ff ff pp
-6.0000000000000000e+00 6.0000000000000000e+00
-6.0000000000000000e+00 6.0000000000000000e+00
-6.0000000000000000e+00 6.0000000000000000e+00
ITEM: ATOMS id type xs ys zs
1 2 0.515286 0.499536 0.5
2 1 0.599305 0.499289 0.5
3 1 0.536503 0.553981 0.5
4 1 0.470297 0.503435 0.5
5 1 0.485837 0.421585 0.5
6 1 0.592684 0.501194 0.5
7 1 0.502829 0.528058 0.5
ITEM: TIMESTEP
510
ITEM: NUMBER OF ATOMS
7
ITEM: BOX BOUNDS ff ff pp
-6.0000000000000000e+00 6.0000000000000000e+00
-6.0000000000000000e+00 6.0000000000000000e+00
-6.0000000000000000e+00 6.0000000000000000e+00
ITEM: ATOMS id type xs ys zs
1 2 0.515497 0.499855 0.5
2 1 0.59951 0.499004 0.5
3 1 0.536631 0.553617 0.5
4 1 0.470439 0.50322 0.5
5 1 0.486904 0.421626 0.5
6 1 0.592882 0.500915 0.5
7 1 0.502228 0.528466 0.5
ITEM: TIMESTEP
520
ITEM: NUMBER OF ATOMS
7
ITEM: BOX BOUNDS ff ff pp
-6.0000000000000000e+00 6.0000000000000000e+00
-6.0000000000000000e+00 6.0000000000000000e+00
-6.0000000000000000e+00 6.0000000000000000e+00
ITEM: ATOMS id type xs ys zs
1 2 0.515656 0.500269 0.5
2 1 0.599667 0.498719 0.5
3 1 0.536742 0.55327 0.5
4 1 0.47052 0.503004 0.5
5 1 0.488092 0.421675 0.5
6 1 0.593019 0.500605 0.5
7 1 0.501852 0.528755 0.5
ITEM: TIMESTEP
530
ITEM: NUMBER OF ATOMS
7
ITEM: BOX BOUNDS ff ff pp
-6.0000000000000000e+00 6.0000000000000000e+00
-6.0000000000000000e+00 6.0000000000000000e+00
-6.0000000000000000e+00 6.0000000000000000e+00
ITEM: ATOMS id type xs ys zs
1 2 0.515764 0.500626 0.5
2 1 0.599771 0.498467 0.5
3 1 0.536836 0.553 0.5
4 1 0.470587 0.502825 0.5
5 1 0.489099 0.421726 0.5
6 1 0.593112 0.500331 0.5
7 1 0.501548 0.528998 0.5
ITEM: TIMESTEP
540
ITEM: NUMBER OF ATOMS
7
ITEM: BOX BOUNDS ff ff pp
-6.0000000000000000e+00 6.0000000000000000e+00
-6.0000000000000000e+00 6.0000000000000000e+00
-6.0000000000000000e+00 6.0000000000000000e+00
ITEM: ATOMS id type xs ys zs
1 2 0.515334 0.500348 0.5
2 1 0.59936 0.498806 0.5
3 1 0.536675 0.553598 0.5
4 1 0.470343 0.503112 0.5
5 1 0.487899 0.421629 0.5
6 1 0.592725 0.500662 0.5
7 1 0.502741 0.528274 0.5
ITEM: TIMESTEP
550
ITEM: NUMBER OF ATOMS
7
ITEM: BOX BOUNDS ff ff pp
-6.0000000000000000e+00 6.0000000000000000e+00
-6.0000000000000000e+00 6.0000000000000000e+00
-6.0000000000000000e+00 6.0000000000000000e+00
ITEM: ATOMS id type xs ys zs
1 2 0.51525 0.50017 0.5
2 1 0.599265 0.498882 0.5
3 1 0.536639 0.55377 0.5
4 1 0.470341 0.50319 0.5
5 1 0.487449 0.421593 0.5
6 1 0.592671 0.500814 0.5
7 1 0.502913 0.528163 0.5
ITEM: TIMESTEP
560
ITEM: NUMBER OF ATOMS
7
ITEM: BOX BOUNDS ff ff pp
-6.0000000000000000e+00 6.0000000000000000e+00
-6.0000000000000000e+00 6.0000000000000000e+00
-6.0000000000000000e+00 6.0000000000000000e+00
ITEM: ATOMS id type xs ys zs
1 2 0.515208 0.500042 0.5
2 1 0.599217 0.498963 0.5
3 1 0.536595 0.553868 0.5
4 1 0.470309 0.503256 0.5
5 1 0.487074 0.421584 0.5
6 1 0.592634 0.500928 0.5
7 1 0.503044 0.528064 0.5
ITEM: TIMESTEP
570
ITEM: NUMBER OF ATOMS
7
ITEM: BOX BOUNDS ff ff pp
-6.0000000000000000e+00 6.0000000000000000e+00
-6.0000000000000000e+00 6.0000000000000000e+00
-6.0000000000000000e+00 6.0000000000000000e+00
ITEM: ATOMS id type xs ys zs
1 2 0.515152 0.499865 0.5
2 1 0.599162 0.499086 0.5
3 1 0.536548 0.554005 0.5
4 1 0.470278 0.503344 0.5
5 1 0.486569 0.421562 0.5
6 1 0.592587 0.501065 0.5
7 1 0.503189 0.527944 0.5
ITEM: TIMESTEP
580
ITEM: NUMBER OF ATOMS
7
ITEM: BOX BOUNDS ff ff pp
-6.0000000000000000e+00 6.0000000000000000e+00
-6.0000000000000000e+00 6.0000000000000000e+00
-6.0000000000000000e+00 6.0000000000000000e+00
ITEM: ATOMS id type xs ys zs
1 2 0.515346 0.500007 0.5
2 1 0.599351 0.498911 0.5
3 1 0.536645 0.553737 0.5
4 1 0.470412 0.503201 0.5
5 1 0.487186 0.421586 0.5
6 1 0.592771 0.500902 0.5
7 1 0.50262 0.528292 0.5
ITEM: TIMESTEP
590
ITEM: NUMBER OF ATOMS
7
ITEM: BOX BOUNDS ff ff pp
-6.0000000000000000e+00 6.0000000000000000e+00
-6.0000000000000000e+00 6.0000000000000000e+00
-6.0000000000000000e+00 6.0000000000000000e+00
ITEM: ATOMS id type xs ys zs
1 2 0.515454 0.500212 0.5
2 1 0.599458 0.498772 0.5
3 1 0.536696 0.553523 0.5
4 1 0.470445 0.503094 0.5
5 1 0.48777 0.421631 0.5
6 1 0.592856 0.500732 0.5
7 1 0.502352 0.528477 0.5
ITEM: TIMESTEP
600
ITEM: NUMBER OF ATOMS
7
ITEM: BOX BOUNDS ff ff pp
-6.0000000000000000e+00 6.0000000000000000e+00
-6.0000000000000000e+00 6.0000000000000000e+00
-6.0000000000000000e+00 6.0000000000000000e+00
ITEM: ATOMS id type xs ys zs
1 2 0.515421 0.500233 0.5
2 1 0.599426 0.498794 0.5
3 1 0.536672 0.553544 0.5
4 1 0.470401 0.50311 0.5
5 1 0.487748 0.421642 0.5
6 1 0.592814 0.500732 0.5
7 1 0.502488 0.528403 0.5
ITEM: TIMESTEP
610
ITEM: NUMBER OF ATOMS
7
ITEM: BOX BOUNDS ff ff pp
-6.0000000000000000e+00 6.0000000000000000e+00
-6.0000000000000000e+00 6.0000000000000000e+00
-6.0000000000000000e+00 6.0000000000000000e+00
ITEM: ATOMS id type xs ys zs
1 2 0.515411 0.500262 0.5
2 1 0.599424 0.498768 0.5
3 1 0.536702 0.553553 0.5
4 1 0.470428 0.503094 0.5
5 1 0.487842 0.421621 0.5
6 1 0.592817 0.500701 0.5
7 1 0.502447 0.528432 0.5
ITEM: TIMESTEP
620
ITEM: NUMBER OF ATOMS
7
ITEM: BOX BOUNDS ff ff pp
-6.0000000000000000e+00 6.0000000000000000e+00
-6.0000000000000000e+00 6.0000000000000000e+00
-6.0000000000000000e+00 6.0000000000000000e+00
ITEM: ATOMS id type xs ys zs
1 2 0.515472 0.500398 0.5
2 1 0.599481 0.498652 0.5
3 1 0.536746 0.553425 0.5
4 1 0.470465 0.503019 0.5
5 1 0.488253 0.421644 0.5
6 1 0.592872 0.500591 0.5
7 1 0.502256 0.52857 0.5
ITEM: TIMESTEP
630
ITEM: NUMBER OF ATOMS
7
ITEM: BOX BOUNDS ff ff pp
-6.0000000000000000e+00 6.0000000000000000e+00
-6.0000000000000000e+00 6.0000000000000000e+00
-6.0000000000000000e+00 6.0000000000000000e+00
ITEM: ATOMS id type xs ys zs
1 2 0.515641 0.500713 0.5
2 1 0.599646 0.498357 0.5
3 1 0.536887 0.553115 0.5
4 1 0.470616 0.502813 0.5
5 1 0.489289 0.421682 0.5
6 1 0.593041 0.500307 0.5
7 1 0.50166 0.528968 0.5
ITEM: TIMESTEP
640
ITEM: NUMBER OF ATOMS
7
ITEM: BOX BOUNDS ff ff pp
-6.0000000000000000e+00 6.0000000000000000e+00
-6.0000000000000000e+00 6.0000000000000000e+00
-6.0000000000000000e+00 6.0000000000000000e+00
ITEM: ATOMS id type xs ys zs
1 2 0.516414 0.502031 0.5
2 1 0.600332 0.497257 0.5
3 1 0.537346 0.551809 0.5
4 1 0.471179 0.501834 0.5
5 1 0.493814 0.421935 0.5
6 1 0.593727 0.499238 0.5
7 1 0.499936 0.53019 0.5
ITEM: TIMESTEP
650
ITEM: NUMBER OF ATOMS
7
ITEM: BOX BOUNDS ff ff pp
-6.0000000000000000e+00 6.0000000000000000e+00
-6.0000000000000000e+00 6.0000000000000000e+00
-6.0000000000000000e+00 6.0000000000000000e+00
ITEM: ATOMS id type xs ys zs
1 2 0.51793 0.505273 0.5
2 1 0.601402 0.495096 0.5
3 1 0.537897 0.549029 0.5
4 1 0.471717 0.499564 0.5
5 1 0.504004 0.423226 0.5
6 1 0.594653 0.496895 0.5
7 1 0.498475 0.531503 0.5
ITEM: TIMESTEP
660
ITEM: NUMBER OF ATOMS
7
ITEM: BOX BOUNDS ff ff pp
-6.0000000000000000e+00 6.0000000000000000e+00
-6.0000000000000000e+00 6.0000000000000000e+00
-6.0000000000000000e+00 6.0000000000000000e+00
ITEM: ATOMS id type xs ys zs
1 2 0.517602 0.505602 0.5
2 1 0.601037 0.495023 0.5
3 1 0.537944 0.549306 0.5
4 1 0.471566 0.499476 0.5
5 1 0.504701 0.423278 0.5
6 1 0.594292 0.496698 0.5
7 1 0.49942 0.531069 0.5
ITEM: TIMESTEP
670
ITEM: NUMBER OF ATOMS
7
ITEM: BOX BOUNDS ff ff pp
-6.0000000000000000e+00 6.0000000000000000e+00
-6.0000000000000000e+00 6.0000000000000000e+00
-6.0000000000000000e+00 6.0000000000000000e+00
ITEM: ATOMS id type xs ys zs
1 2 0.517317 0.505478 0.5
2 1 0.600765 0.495062 0.5
3 1 0.537971 0.549686 0.5
4 1 0.47156 0.499581 0.5
5 1 0.504452 0.423143 0.5
6 1 0.594095 0.496809 0.5
7 1 0.499927 0.530824 0.5
ITEM: TIMESTEP
680
ITEM: NUMBER OF ATOMS
7
ITEM: BOX BOUNDS ff ff pp
-6.0000000000000000e+00 6.0000000000000000e+00
-6.0000000000000000e+00 6.0000000000000000e+00
-6.0000000000000000e+00 6.0000000000000000e+00
ITEM: ATOMS id type xs ys zs
1 2 0.517118 0.505279 0.5
2 1 0.600588 0.495118 0.5
3 1 0.53798 0.549989 0.5
4 1 0.471574 0.499717 0.5
5 1 0.503978 0.422985 0.5
6 1 0.593996 0.497007 0.5
7 1 0.500217 0.530665 0.5
ITEM: TIMESTEP
690
ITEM: NUMBER OF ATOMS
7
ITEM: BOX BOUNDS ff ff pp
-6.0000000000000000e+00 6.0000000000000000e+00
-6.0000000000000000e+00 6.0000000000000000e+00
-6.0000000000000000e+00 6.0000000000000000e+00
ITEM: ATOMS id type xs ys zs
1 2 0.517013 0.505125 0.5
2 1 0.600483 0.495158 0.5
3 1 0.537964 0.550171 0.5
4 1 0.47157 0.499814 0.5
5 1 0.503573 0.422889 0.5
6 1 0.593953 0.497188 0.5
7 1 0.5004 0.530554 0.5
ITEM: TIMESTEP
700
ITEM: NUMBER OF ATOMS
7
ITEM: BOX BOUNDS ff ff pp
-6.0000000000000000e+00 6.0000000000000000e+00
-6.0000000000000000e+00 6.0000000000000000e+00
-6.0000000000000000e+00 6.0000000000000000e+00
ITEM: ATOMS id type xs ys zs
1 2 0.516854 0.504768 0.5
2 1 0.600384 0.4954 0.5
3 1 0.537917 0.550492 0.5
4 1 0.471542 0.500046 0.5
5 1 0.502526 0.422672 0.5
6 1 0.593888 0.497503 0.5
7 1 0.500657 0.530348 0.5
ITEM: TIMESTEP
710
ITEM: NUMBER OF ATOMS
7
ITEM: BOX BOUNDS ff ff pp
-6.0000000000000000e+00 6.0000000000000000e+00
-6.0000000000000000e+00 6.0000000000000000e+00
-6.0000000000000000e+00 6.0000000000000000e+00