ITEM: TIMESTEP
0
ITEM: NUMBER OF ATOMS
7
ITEM: BOX BOUNDS ff ff pp
-6.0000000000000000e+00 6.0000000000000000e+00
-6.0000000000000000e+00 6.0000000000000000e+00
-6.0000000000000000e+00 6.0000000000000000e+00
ITEM: ATOMS id type xs ys zs
1 2 0.503959 0.501537 0.5
2 1 0.579125 0.5 0.5
3 1 0.529151 0.557662 0.5
4 1 0.462649 0.511499 0.5
5 1 0.46051 0.435804 0.5
6 1 0.573697 0.502972 0.5
7 1 0.5161 0.519177 0.5
ITEM: TIMESTEP
10
ITEM: NUMBER OF ATOMS
7
ITEM: BOX BOUNDS ff ff pp
-6.0000000000000000e+00 6.0000000000000000e+00
-6.0000000000000000e+00 6.0000000000000000e+00
-6.0000000000000000e+00 6.0000000000000000e+00
ITEM: ATOMS id type xs ys zs
1 2 0.501571 0.504864 0.5
2 1 0.584037 0.495927 0.5
3 1 0.529899 0.56043 0.5
4 1 0.460562 0.511417 0.5
5 1 0.468548 0.427569 0.5
6 1 0.580909 0.501998 0.5
7 1 0.519922 0.520812 0.5
ITEM: TIMESTEP
20
ITEM: NUMBER OF ATOMS
7
ITEM: BOX BOUNDS ff ff pp
-6.0000000000000000e+00 6.0000000000000000e+00
-6.0000000000000000e+00 6.0000000000000000e+00
-6.0000000000000000e+00 6.0000000000000000e+00
ITEM: ATOMS id type xs ys zs
1 2 0.502399 0.50522 0.5
2 1 0.58461 0.495545 0.5
3 1 0.530638 0.560164 0.5
4 1 0.461488 0.510231 0.5
5 1 0.473155 0.426567 0.5
6 1 0.581497 0.50169 0.5
7 1 0.521281 0.520924 0.5
ITEM: TIMESTEP
30
ITEM: NUMBER OF ATOMS
7
ITEM: BOX BOUNDS ff ff pp
-6.0000000000000000e+00 6.0000000000000000e+00
-6.0000000000000000e+00 6.0000000000000000e+00
-6.0000000000000000e+00 6.0000000000000000e+00
ITEM: ATOMS id type xs ys zs
1 2 0.502869 0.505047 0.5
2 1 0.585234 0.4958 0.5
3 1 0.530727 0.560016 0.5
4 1 0.461698 0.509845 0.5
5 1 0.474293 0.426219 0.5
6 1 0.581804 0.501706 0.5
7 1 0.521934 0.520737 0.5
ITEM: TIMESTEP
40
ITEM: NUMBER OF ATOMS
7
ITEM: BOX BOUNDS ff ff pp
-6.0000000000000000e+00 6.0000000000000000e+00
-6.0000000000000000e+00 6.0000000000000000e+00
-6.0000000000000000e+00 6.0000000000000000e+00
ITEM: ATOMS id type xs ys zs
1 2 0.504289 0.505554 0.5
2 1 0.586246 0.494894 0.5
3 1 0.53218 0.559682 0.5
4 1 0.463888 0.507336 0.5
5 1 0.482961 0.42444 0.5
6 1 0.583466 0.501162 0.5
7 1 0.522995 0.521443 0.5
ITEM: TIMESTEP
50
ITEM: NUMBER OF ATOMS
7
ITEM: BOX BOUNDS ff ff pp
-6.0000000000000000e+00 6.0000000000000000e+00
-6.0000000000000000e+00 6.0000000000000000e+00
-6.0000000000000000e+00 6.0000000000000000e+00
ITEM: ATOMS id type xs ys zs
1 2 0.507441 0.506197 0.5
2 1 0.588619 0.492585 0.5
3 1 0.535824 0.558269 0.5
4 1 0.468405 0.502889 0.5
5 1 0.499123 0.422616 0.5
6 1 0.58703 0.499442 0.5
7 1 0.518656 0.524425 0.5
ITEM: TIMESTEP
60
ITEM: NUMBER OF ATOMS
7
ITEM: BOX BOUNDS ff ff pp
-6.0000000000000000e+00 6.0000000000000000e+00
-6.0000000000000000e+00 6.0000000000000000e+00
-6.0000000000000000e+00 6.0000000000000000e+00
ITEM: ATOMS id type xs ys zs
1 2 0.512539 0.506784 0.5
2 1 0.592931 0.489225 0.5
3 1 0.540319 0.553976 0.5
4 1 0.474192 0.497645 0.5
5 1 0.518154 0.423412 0.5
6 1 0.592335 0.496581 0.5
7 1 0.507312 0.529707 0.5
ITEM: TIMESTEP
70
ITEM: NUMBER OF ATOMS
7
ITEM: BOX BOUNDS ff ff pp
-6.0000000000000000e+00 6.0000000000000000e+00
-6.0000000000000000e+00 6.0000000000000000e+00
-6.0000000000000000e+00 6.0000000000000000e+00
ITEM: ATOMS id type xs ys zs
1 2 0.519258 0.509893 0.5
2 1 0.598459 0.485293 0.5
3 1 0.540915 0.54581 0.5
4 1 0.477597 0.49113 0.5
5 1 0.53695 0.430303 0.5
6 1 0.59742 0.492764 0.5
7 1 0.499305 0.5332 0.5
ITEM: TIMESTEP
80
ITEM: NUMBER OF ATOMS
7
ITEM: BOX BOUNDS ff ff pp
-6.0000000000000000e+00 6.0000000000000000e+00
-6.0000000000000000e+00 6.0000000000000000e+00
-6.0000000000000000e+00 6.0000000000000000e+00
ITEM: ATOMS id type xs ys zs
1 2 0.526169 0.519676 0.5
2 1 0.599611 0.480252 0.5
3 1 0.539601 0.537923 0.5
4 1 0.477059 0.482124 0.5
5 1 0.550711 0.440939 0.5
6 1 0.59791 0.487414 0.5
7 1 0.497643 0.534836 0.5
ITEM: TIMESTEP
90
ITEM: NUMBER OF ATOMS
7
ITEM: BOX BOUNDS ff ff pp
-6.0000000000000000e+00 6.0000000000000000e+00
-6.0000000000000000e+00 6.0000000000000000e+00
-6.0000000000000000e+00 6.0000000000000000e+00
ITEM: ATOMS id type xs ys zs
1 2 0.531178 0.526872 0.5
2 1 0.59755 0.476317 0.5
3 1 0.53757 0.533983 0.5
4 1 0.474384 0.479118 0.5
5 1 0.55125 0.4462 0.5
6 1 0.596015 0.483512 0.5
7 1 0.495659 0.53858 0.5
ITEM: TIMESTEP
100
ITEM: NUMBER OF ATOMS
7
ITEM: BOX BOUNDS ff ff pp
-6.0000000000000000e+00 6.0000000000000000e+00
-6.0000000000000000e+00 6.0000000000000000e+00
-6.0000000000000000e+00 6.0000000000000000e+00
ITEM: ATOMS id type xs ys zs
1 2 0.532782 0.528441 0.5
2 1 0.597515 0.475593 0.5
3 1 0.537086 0.532872 0.5
4 1 0.473664 0.478533 0.5
5 1 0.551097 0.447264 0.5
6 1 0.595588 0.48255 0.5
7 1 0.495321 0.539483 0.5
ITEM: TIMESTEP
110
ITEM: NUMBER OF ATOMS
7
ITEM: BOX BOUNDS ff ff pp
-6.0000000000000000e+00 6.0000000000000000e+00
-6.0000000000000000e+00 6.0000000000000000e+00
-6.0000000000000000e+00 6.0000000000000000e+00
ITEM: ATOMS id type xs ys zs
1 2 0.537146 0.53208 0.5
2 1 0.597026 0.473436 0.5
3 1 0.536258 0.530336 0.5
4 1 0.472914 0.476084 0.5
5 1 0.552231 0.45015 0.5
6 1 0.594995 0.480257 0.5
7 1 0.495331 0.541601 0.5
ITEM: TIMESTEP
120
ITEM: NUMBER OF ATOMS
7
ITEM: BOX BOUNDS ff ff pp
-6.0000000000000000e+00 6.0000000000000000e+00
-6.0000000000000000e+00 6.0000000000000000e+00
-6.0000000000000000e+00 6.0000000000000000e+00
ITEM: ATOMS id type xs ys zs
1 2 0.539955 0.533551 0.5
2 1 0.597832 0.472779 0.5
3 1 0.53622 0.528784 0.5
4 1 0.473407 0.473991 0.5
5 1 0.553676 0.451353 0.5
6 1 0.595513 0.479408 0.5
7 1 0.495917 0.542238 0.5
ITEM: TIMESTEP
130
ITEM: NUMBER OF ATOMS
7
ITEM: BOX BOUNDS ff ff pp
-6.0000000000000000e+00 6.0000000000000000e+00
-6.0000000000000000e+00 6.0000000000000000e+00
-6.0000000000000000e+00 6.0000000000000000e+00
ITEM: ATOMS id type xs ys zs
1 2 0.541585 0.53421 0.5
2 1 0.598577 0.472594 0.5
3 1 0.53628 0.52788 0.5
4 1 0.473878 0.472619 0.5
5 1 0.554662 0.451894 0.5
6 1 0.596002 0.479055 0.5
7 1 0.496418 0.542493 0.5
ITEM: TIMESTEP
140
ITEM: NUMBER OF ATOMS
7
ITEM: BOX BOUNDS ff ff pp
-6.0000000000000000e+00 6.0000000000000000e+00
-6.0000000000000000e+00 6.0000000000000000e+00
-6.0000000000000000e+00 6.0000000000000000e+00
ITEM: ATOMS id type xs ys zs
1 2 0.538821 0.532825 0.5
2 1 0.598086 0.473487 0.5
3 1 0.536126 0.529259 0.5
4 1 0.472868 0.474963 0.5
5 1 0.552577 0.450592 0.5
6 1 0.59515 0.479723 0.5
7 1 0.495742 0.542129 0.5
ITEM: TIMESTEP
150
ITEM: NUMBER OF ATOMS
7
ITEM: BOX BOUNDS ff ff pp
-6.0000000000000000e+00 6.0000000000000000e+00
-6.0000000000000000e+00 6.0000000000000000e+00
-6.0000000000000000e+00 6.0000000000000000e+00
ITEM: ATOMS id type xs ys zs
1 2 0.532886 0.528316 0.5
2 1 0.598769 0.476607 0.5
3 1 0.536866 0.532618 0.5
4 1 0.47265 0.479467 0.5
5 1 0.548987 0.446419 0.5
6 1 0.595066 0.482317 0.5
7 1 0.495149 0.539737 0.5
ITEM: TIMESTEP
160
ITEM: NUMBER OF ATOMS
7
ITEM: BOX BOUNDS ff ff pp
-6.0000000000000000e+00 6.0000000000000000e+00
-6.0000000000000000e+00 6.0000000000000000e+00
-6.0000000000000000e+00 6.0000000000000000e+00
ITEM: ATOMS id type xs ys zs
1 2 0.531469 0.526556 0.5
2 1 0.599813 0.477913 0.5
3 1 0.537477 0.533481 0.5
4 1 0.473191 0.480447 0.5
5 1 0.548448 0.444888 0.5
6 1 0.595623 0.483211 0.5
7 1 0.495413 0.538691 0.5
ITEM: TIMESTEP
170
ITEM: NUMBER OF ATOMS
7
ITEM: BOX BOUNDS ff ff pp
-6.0000000000000000e+00 6.0000000000000000e+00
-6.0000000000000000e+00 6.0000000000000000e+00
-6.0000000000000000e+00 6.0000000000000000e+00
ITEM: ATOMS id type xs ys zs
1 2 0.530777 0.525588 0.5
2 1 0.600345 0.478673 0.5
3 1 0.537774 0.533995 0.5
4 1 0.473483 0.48096 0.5
5 1 0.548056 0.443982 0.5
6 1 0.595914 0.483739 0.5
7 1 0.495589 0.538109 0.5
ITEM: TIMESTEP
180
ITEM: NUMBER OF ATOMS
7
ITEM: BOX BOUNDS ff ff pp
-6.0000000000000000e+00 6.0000000000000000e+00
-6.0000000000000000e+00 6.0000000000000000e+00
-6.0000000000000000e+00 6.0000000000000000e+00
ITEM: ATOMS id type xs ys zs
1 2 0.530867 0.525796 0.5
2 1 0.600256 0.478496 0.5
3 1 0.537725 0.533854 0.5
4 1 0.4734 0.480894 0.5
5 1 0.548299 0.444321 0.5
6 1 0.595752 0.483458 0.5
7 1 0.495524 0.53826 0.5
ITEM: TIMESTEP
190
ITEM: NUMBER OF ATOMS
7
ITEM: BOX BOUNDS ff ff pp
-6.0000000000000000e+00 6.0000000000000000e+00
-6.0000000000000000e+00 6.0000000000000000e+00
-6.0000000000000000e+00 6.0000000000000000e+00
ITEM: ATOMS id type xs ys zs
1 2 0.530682 0.525528 0.5
2 1 0.600383 0.478743 0.5
3 1 0.537782 0.534028 0.5
4 1 0.473459 0.481034 0.5
5 1 0.548099 0.444015 0.5
6 1 0.59582 0.483643 0.5
7 1 0.495576 0.538094 0.5
ITEM: TIMESTEP
200
ITEM: NUMBER OF ATOMS
7
ITEM: BOX BOUNDS ff ff pp
-6.0000000000000000e+00 6.0000000000000000e+00
-6.0000000000000000e+00 6.0000000000000000e+00
-6.0000000000000000e+00 6.0000000000000000e+00
ITEM: ATOMS id type xs ys zs
1 2 0.530182 0.524865 0.5
2 1 0.600695 0.47927 0.5
3 1 0.537948 0.534394 0.5
4 1 0.473616 0.481425 0.5
5 1 0.547754 0.443392 0.5
6 1 0.595982 0.484017 0.5
7 1 0.495659 0.537711 0.5
ITEM: TIMESTEP
210
ITEM: NUMBER OF ATOMS
7
ITEM: BOX BOUNDS ff ff pp
-6.0000000000000000e+00 6.0000000000000000e+00
-6.0000000000000000e+00 6.0000000000000000e+00
-6.0000000000000000e+00 6.0000000000000000e+00
ITEM: ATOMS id type xs ys zs
1 2 0.530093 0.52475 0.5
2 1 0.600755 0.47937 0.5
3 1 0.537975 0.534456 0.5
4 1 0.473639 0.481492 0.5
5 1 0.547698 0.44329 0.5
6 1 0.595999 0.484067 0.5
7 1 0.495675 0.53765 0.5
ITEM: TIMESTEP
220
ITEM: NUMBER OF ATOMS
7
ITEM: BOX BOUNDS ff ff pp
-6.0000000000000000e+00 6.0000000000000000e+00
-6.0000000000000000e+00 6.0000000000000000e+00
-6.0000000000000000e+00 6.0000000000000000e+00
ITEM: ATOMS id type xs ys zs
1 2 0.530707 0.525538 0.5
2 1 0.600487 0.478794 0.5
3 1 0.537791 0.533965 0.5
4 1 0.473442 0.481011 0.5
5 1 0.548145 0.444061 0.5
6 1 0.595792 0.483546 0.5
7 1 0.495583 0.538128 0.5
ITEM: TIMESTEP
230
ITEM: NUMBER OF ATOMS
7
ITEM: BOX BOUNDS ff ff pp
-6.0000000000000000e+00 6.0000000000000000e+00
-6.0000000000000000e+00 6.0000000000000000e+00
-6.0000000000000000e+00 6.0000000000000000e+00
ITEM: ATOMS id type xs ys zs
1 2 0.530005 0.524634 0.5
2 1 0.600834 0.479509 0.5
3 1 0.537993 0.534525 0.5
4 1 0.473643 0.481574 0.5
5 1 0.547602 0.44317 0.5
6 1 0.595998 0.48411 0.5
7 1 0.49568 0.537575 0.5
ITEM: TIMESTEP
240
ITEM: NUMBER OF ATOMS
7
ITEM: BOX BOUNDS ff ff pp
-6.0000000000000000e+00 6.0000000000000000e+00
-6.0000000000000000e+00 6.0000000000000000e+00
-6.0000000000000000e+00 6.0000000000000000e+00
ITEM: ATOMS id type xs ys zs
1 2 0.529094 0.523344 0.5
2 1 0.601359 0.48054 0.5
3 1 0.538279 0.535285 0.5
4 1 0.473961 0.482299 0.5
5 1 0.546861 0.441914 0.5
6 1 0.59631 0.484895 0.5
7 1 0.495879 0.536823 0.5
ITEM: TIMESTEP
250
ITEM: NUMBER OF ATOMS
7
ITEM: BOX BOUNDS ff ff pp
-6.0000000000000000e+00 6.0000000000000000e+00
-6.0000000000000000e+00 6.0000000000000000e+00
-6.0000000000000000e+00 6.0000000000000000e+00
ITEM: ATOMS id type xs ys zs
1 2 0.528279 0.522053 0.5
2 1 0.601904 0.481591 0.5
3 1 0.538564 0.536022 0.5
4 1 0.474309 0.482958 0.5
5 1 0.546125 0.440651 0.5
6 1 0.596645 0.485682 0.5
7 1 0.496131 0.536084 0.5
ITEM: TIMESTEP
260
ITEM: NUMBER OF ATOMS
7
ITEM: BOX BOUNDS ff ff pp
-6.0000000000000000e+00 6.0000000000000000e+00
-6.0000000000000000e+00 6.0000000000000000e+00
-6.0000000000000000e+00 6.0000000000000000e+00
ITEM: ATOMS id type xs ys zs
1 2 0.527411 0.520773 0.5
2 1 0.602318 0.482539 0.5
3 1 0.538838 0.536785 0.5
4 1 0.474646 0.483686 0.5
5 1 0.545459 0.43949 0.5
6 1 0.596912 0.486424 0.5
7 1 0.496345 0.535352 0.5
ITEM: TIMESTEP
270
ITEM: NUMBER OF ATOMS
7
ITEM: BOX BOUNDS ff ff pp
-6.0000000000000000e+00 6.0000000000000000e+00
-6.0000000000000000e+00 6.0000000000000000e+00
-6.0000000000000000e+00 6.0000000000000000e+00
ITEM: ATOMS id type xs ys zs
1 2 0.527237 0.520348 0.5
2 1 0.602492 0.48296 0.5
3 1 0.538879 0.537052 0.5
4 1 0.474747 0.483811 0.5
5 1 0.54505 0.438966 0.5
6 1 0.597033 0.48677 0.5
7 1 0.496493 0.535142 0.5
ITEM: TIMESTEP
280
ITEM: NUMBER OF ATOMS
7
ITEM: BOX BOUNDS ff ff pp
-6.0000000000000000e+00 6.0000000000000000e+00
-6.0000000000000000e+00 6.0000000000000000e+00
-6.0000000000000000e+00 6.0000000000000000e+00
ITEM: ATOMS id type xs ys zs
1 2 0.526305 0.518731 0.5
2 1 0.602994 0.484236 0.5
3 1 0.539149 0.538023 0.5
4 1 0.475172 0.484631 0.5
5 1 0.544028 0.437406 0.5
6 1 0.597381 0.487805 0.5
7 1 0.496832 0.534234 0.5
ITEM: TIMESTEP
290
ITEM: NUMBER OF ATOMS
7
ITEM: BOX BOUNDS ff ff pp
-6.0000000000000000e+00 6.0000000000000000e+00
-6.0000000000000000e+00 6.0000000000000000e+00
-6.0000000000000000e+00 6.0000000000000000e+00
ITEM: ATOMS id type xs ys zs
1 2 0.526486 0.518889 0.5
2 1 0.603054 0.484258 0.5
3 1 0.539087 0.537904 0.5
4 1 0.475103 0.484483 0.5
5 1 0.543902 0.437411 0.5
6 1 0.597401 0.487796 0.5
7 1 0.49682 0.534329 0.5
ITEM: TIMESTEP
300
ITEM: NUMBER OF ATOMS
7
ITEM: BOX BOUNDS ff ff pp
-6.0000000000000000e+00 6.0000000000000000e+00
-6.0000000000000000e+00 6.0000000000000000e+00
-6.0000000000000000e+00 6.0000000000000000e+00
ITEM: ATOMS id type xs ys zs
1 2 0.526018 0.518041 0.5
2 1 0.603338 0.484978 0.5
3 1 0.539213 0.538405 0.5
4 1 0.475309 0.484919 0.5
5 1 0.543326 0.436589 0.5
6 1 0.597563 0.48831 0.5
7 1 0.496991 0.533854 0.5
ITEM: TIMESTEP
310
ITEM: NUMBER OF ATOMS
7
ITEM: BOX BOUNDS ff ff pp
-6.0000000000000000e+00 6.0000000000000000e+00
-6.0000000000000000e+00 6.0000000000000000e+00
-6.0000000000000000e+00 6.0000000000000000e+00
ITEM: ATOMS id type xs ys zs
1 2 0.52576 0.517401 0.5
2 1 0.603573 0.48561 0.5
3 1 0.539265 0.538804 0.5
4 1 0.475459 0.485164 0.5
5 1 0.542714 0.43585 0.5
6 1 0.597714 0.488798 0.5
7 1 0.497177 0.533498 0.5
ITEM: TIMESTEP
320
ITEM: NUMBER OF ATOMS
7
ITEM: BOX BOUNDS ff ff pp
-6.0000000000000000e+00 6.0000000000000000e+00
-6.0000000000000000e+00 6.0000000000000000e+00
-6.0000000000000000e+00 6.0000000000000000e+00
ITEM: ATOMS id type xs ys zs
1 2 0.52561 0.517013 0.5
2 1 0.603758 0.486025 0.5
3 1 0.539299 0.539013 0.5
4 1 0.47554 0.485334 0.5
5 1 0.542334 0.435411 0.5
6 1 0.597809 0.489064 0.5
7 1 0.497261 0.533277 0.5
ITEM: TIMESTEP
330
ITEM: NUMBER OF ATOMS
7
ITEM: BOX BOUNDS ff ff pp
-6.0000000000000000e+00 6.0000000000000000e+00
-6.0000000000000000e+00 6.0000000000000000e+00
-6.0000000000000000e+00 6.0000000000000000e+00
ITEM: ATOMS id type xs ys zs
1 2 0.52571 0.517116 0.5
2 1 0.603792 0.486035 0.5
3 1 0.539268 0.538936 0.5
4 1 0.475497 0.485263 0.5
5 1 0.542311 0.435456 0.5
6 1 0.597799 0.489002 0.5
7 1 0.497241 0.533328 0.5
ITEM: TIMESTEP
340
ITEM: NUMBER OF ATOMS
7
ITEM: BOX BOUNDS ff ff pp
-6.0000000000000000e+00 6.0000000000000000e+00
-6.0000000000000000e+00 6.0000000000000000e+00
-6.0000000000000000e+00 6.0000000000000000e+00
ITEM: ATOMS id type xs ys zs
1 2 0.526023 0.517694 0.5
2 1 0.603696 0.485634 0.5
3 1 0.53919 0.538555 0.5
4 1 0.475328 0.484997 0.5
5 1 0.542696 0.436018 0.5
6 1 0.597677 0.48857 0.5
7 1 0.497086 0.533647 0.5
ITEM: TIMESTEP
350
ITEM: NUMBER OF ATOMS
7
ITEM: BOX BOUNDS ff ff pp
-6.0000000000000000e+00 6.0000000000000000e+00
-6.0000000000000000e+00 6.0000000000000000e+00
-6.0000000000000000e+00 6.0000000000000000e+00
ITEM: ATOMS id type xs ys zs
1 2 0.526524 0.518576 0.5
2 1 0.6035 0.484973 0.5
3 1 0.539071 0.537991 0.5
4 1 0.475093 0.484566 0.5
5 1 0.543328 0.436897 0.5
6 1 0.597482 0.487917 0.5
7 1 0.496888 0.53414 0.5
ITEM: TIMESTEP
360
ITEM: NUMBER OF ATOMS
7
ITEM: BOX BOUNDS ff ff pp
-6.0000000000000000e+00 6.0000000000000000e+00
-6.0000000000000000e+00 6.0000000000000000e+00
-6.0000000000000000e+00 6.0000000000000000e+00
ITEM: ATOMS id type xs ys zs
1 2 0.528239 0.5215 0.5
2 1 0.602708 0.482624 0.5
3 1 0.538664 0.536131 0.5
4 1 0.474371 0.483102 0.5
5 1 0.545452 0.439882 0.5
6 1 0.596826 0.485837 0.5
7 1 0.496284 0.535801 0.5
ITEM: TIMESTEP
370
ITEM: NUMBER OF ATOMS
7
ITEM: BOX BOUNDS ff ff pp
-6.0000000000000000e+00 6.0000000000000000e+00
-6.0000000000000000e+00 6.0000000000000000e+00
-6.0000000000000000e+00 6.0000000000000000e+00
ITEM: ATOMS id type xs ys zs
1 2 0.529718 0.524027 0.5
2 1 0.601651 0.480547 0.5
3 1 0.538138 0.534673 0.5
4 1 0.473623 0.481917 0.5
5 1 0.547111 0.442595 0.5
6 1 0.595886 0.483959 0.5
7 1 0.495794 0.537333 0.5
ITEM: TIMESTEP
380
ITEM: NUMBER OF ATOMS
7
ITEM: BOX BOUNDS ff ff pp
-6.0000000000000000e+00 6.0000000000000000e+00
-6.0000000000000000e+00 6.0000000000000000e+00
-6.0000000000000000e+00 6.0000000000000000e+00
ITEM: ATOMS id type xs ys zs
1 2 0.529768 0.524089 0.5
2 1 0.601689 0.480581 0.5
3 1 0.538107 0.534644 0.5
4 1 0.473575 0.481901 0.5
5 1 0.547068 0.442582 0.5
6 1 0.595918 0.483919 0.5
7 1 0.495777 0.537342 0.5
ITEM: TIMESTEP
390
ITEM: NUMBER OF ATOMS
7
ITEM: BOX BOUNDS ff ff pp
-6.0000000000000000e+00 6.0000000000000000e+00
-6.0000000000000000e+00 6.0000000000000000e+00
-6.0000000000000000e+00 6.0000000000000000e+00
ITEM: ATOMS id type xs ys zs
1 2 0.529634 0.523902 0.5
2 1 0.601791 0.480786 0.5
3 1 0.538133 0.534749 0.5
4 1 0.473594 0.482019 0.5
5 1 0.546913 0.442385 0.5
6 1 0.595945 0.48401 0.5
7 1 0.495787 0.537234 0.5
ITEM: TIMESTEP
400
ITEM: NUMBER OF ATOMS
7
ITEM: BOX BOUNDS ff ff pp
-6.0000000000000000e+00 6.0000000000000000e+00
-6.0000000000000000e+00 6.0000000000000000e+00
-6.0000000000000000e+00 6.0000000000000000e+00
ITEM: ATOMS id type xs ys zs
1 2 0.52908 0.523155 0.5
2 1 0.602066 0.481446 0.5
3 1 0.53826 0.535206 0.5
4 1 0.473734 0.482467 0.5
5 1 0.546403 0.441645 0.5
6 1 0.596086 0.484453 0.5
7 1 0.495866 0.536799 0.5
ITEM: TIMESTEP
410
ITEM: NUMBER OF ATOMS
7
ITEM: BOX BOUNDS ff ff pp
-6.0000000000000000e+00 6.0000000000000000e+00
-6.0000000000000000e+00 6.0000000000000000e+00
-6.0000000000000000e+00 6.0000000000000000e+00
ITEM: ATOMS id type xs ys zs
1 2 0.52912 0.523181 0.5
2 1 0.602105 0.481484 0.5
3 1 0.53825 0.53517 0.5
4 1 0.473716 0.482434 0.5
5 1 0.546394 0.441659 0.5
6 1 0.596074 0.4844 0.5
7 1 0.495869 0.536833 0.5
ITEM: TIMESTEP
420
ITEM: NUMBER OF ATOMS
7
ITEM: BOX BOUNDS ff ff pp
-6.0000000000000000e+00 6.0000000000000000e+00
-6.0000000000000000e+00 6.0000000000000000e+00
-6.0000000000000000e+00 6.0000000000000000e+00
ITEM: ATOMS id type xs ys zs
1 2 0.529314 0.523429 0.5
2 1 0.602084 0.481344 0.5
3 1 0.538209 0.534993 0.5
4 1 0.473648 0.482295 0.5
5 1 0.546544 0.441901 0.5
6 1 0.596008 0.484192 0.5
7 1 0.495836 0.536975 0.5
ITEM: TIMESTEP
430
ITEM: NUMBER OF ATOMS
7
ITEM: BOX BOUNDS ff ff pp
-6.0000000000000000e+00 6.0000000000000000e+00
-6.0000000000000000e+00 6.0000000000000000e+00
-6.0000000000000000e+00 6.0000000000000000e+00
ITEM: ATOMS id type xs ys zs
1 2 0.529245 0.52333 0.5
2 1 0.602149 0.481476 0.5
3 1 0.538221 0.535047 0.5
4 1 0.473653 0.482358 0.5
5 1 0.546461 0.441799 0.5
6 1 0.596012 0.484216 0.5
7 1 0.495843 0.53692 0.5
ITEM: TIMESTEP
440
ITEM: NUMBER OF ATOMS
7
ITEM: BOX BOUNDS ff ff pp
-6.0000000000000000e+00 6.0000000000000000e+00
-6.0000000000000000e+00 6.0000000000000000e+00
-6.0000000000000000e+00 6.0000000000000000e+00
ITEM: ATOMS id type xs ys zs
1 2 0.529055 0.52309 0.5
2 1 0.602235 0.481708 0.5
3 1 0.538254 0.535195 0.5
4 1 0.473682 0.482514 0.5
5 1 0.546284 0.441567 0.5
6 1 0.596038 0.484335 0.5
7 1 0.495858 0.536786 0.5
ITEM: TIMESTEP
450
ITEM: NUMBER OF ATOMS
7
ITEM: BOX BOUNDS ff ff pp
-6.0000000000000000e+00 6.0000000000000000e+00
-6.0000000000000000e+00 6.0000000000000000e+00
-6.0000000000000000e+00 6.0000000000000000e+00
ITEM: ATOMS id type xs ys zs
1 2 0.529059 0.523073 0.5
2 1 0.602257 0.481755 0.5
3 1 0.538249 0.535201 0.5
4 1 0.473678 0.482512 0.5
5 1 0.546243 0.441534 0.5
6 1 0.596038 0.484339 0.5
7 1 0.495866 0.536784 0.5
ITEM: TIMESTEP
460
ITEM: NUMBER OF ATOMS
7
ITEM: BOX BOUNDS ff ff pp
-6.0000000000000000e+00 6.0000000000000000e+00
-6.0000000000000000e+00 6.0000000000000000e+00
-6.0000000000000000e+00 6.0000000000000000e+00
ITEM: ATOMS id type xs ys zs
1 2 0.529496 0.523578 0.5
2 1 0.602181 0.481382 0.5
3 1 0.538183 0.534848 0.5
4 1 0.473598 0.482176 0.5
5 1 0.546588 0.442008 0.5
6 1 0.595977 0.484009 0.5
7 1 0.495837 0.537068 0.5
ITEM: TIMESTEP
470
ITEM: NUMBER OF ATOMS
7
ITEM: BOX BOUNDS ff ff pp
-6.0000000000000000e+00 6.0000000000000000e+00
-6.0000000000000000e+00 6.0000000000000000e+00
-6.0000000000000000e+00 6.0000000000000000e+00
ITEM: ATOMS id type xs ys zs
1 2 0.529912 0.524061 0.5
2 1 0.602095 0.48102 0.5
3 1 0.538119 0.534518 0.5
4 1 0.473522 0.481859 0.5
5 1 0.546939 0.442477 0.5
6 1 0.595904 0.483672 0.5
7 1 0.495811 0.537339 0.5
ITEM: TIMESTEP
480
ITEM: NUMBER OF ATOMS
7
ITEM: BOX BOUNDS ff ff pp
-6.0000000000000000e+00 6.0000000000000000e+00
-6.0000000000000000e+00 6.0000000000000000e+00
-6.0000000000000000e+00 6.0000000000000000e+00
ITEM: ATOMS id type xs ys zs
1 2 0.530305 0.524544 0.5
2 1 0.601988 0.480647 0.5
3 1 0.538048 0.534196 0.5
4 1 0.473433 0.481562 0.5
5 1 0.54728 0.442957 0.5
6 1 0.595809 0.483335 0.5
7 1 0.495772 0.537612 0.5
ITEM: TIMESTEP
490
ITEM: NUMBER OF ATOMS
7
ITEM: BOX BOUNDS ff ff pp
-6.0000000000000000e+00 6.0000000000000000e+00
-6.0000000000000000e+00 6.0000000000000000e+00
-6.0000000000000000e+00 6.0000000000000000e+00
ITEM: ATOMS id type xs ys zs
1 2 0.530234 0.524457 0.5
2 1 0.602022 0.480748 0.5
3 1 0.538057 0.534256 0.5
4 1 0.473438 0.481626 0.5
5 1 0.54721 0.44287 0.5
6 1 0.595808 0.483363 0.5
7 1 0.495773 0.537558 0.5
ITEM: TIMESTEP
500
ITEM: NUMBER OF ATOMS
7
ITEM: BOX BOUNDS ff ff pp
-6.0000000000000000e+00 6.0000000000000000e+00
-6.0000000000000000e+00 6.0000000000000000e+00
-6.0000000000000000e+00 6.0000000000000000e+00
ITEM: ATOMS id type xs ys zs
1 2 0.530691 0.524961 0.5
2 1 0.60192 0.480368 0.5
3 1 0.537979 0.53391 0.5
4 1 0.473365 0.481272 0.5
5 1 0.547555 0.443352 0.5
6 1 0.595736 0.483034 0.5
7 1 0.495759 0.537852 0.5
ITEM: TIMESTEP
510
ITEM: NUMBER OF ATOMS
7
ITEM: BOX BOUNDS ff ff pp
-6.0000000000000000e+00 6.0000000000000000e+00
-6.0000000000000000e+00 6.0000000000000000e+00
-6.0000000000000000e+00 6.0000000000000000e+00
ITEM: ATOMS id type xs ys zs
1 2 0.532363 0.527104 0.5
2 1 0.601161 0.478693 0.5
3 1 0.537486 0.532575 0.5
4 1 0.472861 0.479984 0.5
5 1 0.548899 0.445547 0.5
6 1 0.59512 0.481593 0.5
7 1 0.495515 0.539143 0.5
ITEM: TIMESTEP
520
ITEM: NUMBER OF ATOMS
7
ITEM: BOX BOUNDS ff ff pp
-6.0000000000000000e+00 6.0000000000000000e+00
-6.0000000000000000e+00 6.0000000000000000e+00
-6.0000000000000000e+00 6.0000000000000000e+00
ITEM: ATOMS id type xs ys zs
1 2 0.534646 0.528864 0.5
2 1 0.601327 0.47771 0.5
3 1 0.537194 0.531097 0.5
4 1 0.473284 0.477588 0.5
5 1 0.550841 0.447157 0.5
6 1 0.595552 0.481042 0.5
7 1 0.495706 0.539749 0.5
ITEM: TIMESTEP
530
ITEM: NUMBER OF ATOMS
7
ITEM: BOX BOUNDS ff ff pp
-6.0000000000000000e+00 6.0000000000000000e+00
-6.0000000000000000e+00 6.0000000000000000e+00
-6.0000000000000000e+00 6.0000000000000000e+00
ITEM: ATOMS id type xs ys zs
1 2 0.536034 0.52958 0.5
2 1 0.602547 0.478207 0.5
3 1 0.537017 0.52987 0.5
4 1 0.474769 0.474477 0.5
5 1 0.553748 0.448165 0.5
6 1 0.596914 0.481753 0.5
7 1 0.495624 0.538901 0.5
ITEM: TIMESTEP
540
ITEM: NUMBER OF ATOMS
7
ITEM: BOX BOUNDS ff ff pp
-6.0000000000000000e+00 6.0000000000000000e+00
-6.0000000000000000e+00 6.0000000000000000e+00
-6.0000000000000000e+00 6.0000000000000000e+00
ITEM: ATOMS id type xs ys zs
1 2 0.535693 0.529433 0.5
2 1 0.601424 0.477099 0.5
3 1 0.53733 0.530649 0.5
4 1 0.473259 0.477305 0.5
5 1 0.55116 0.44754 0.5
6 1 0.595651 0.480475 0.5
7 1 0.495989 0.540163 0.5
ITEM: TIMESTEP
550
ITEM: NUMBER OF ATOMS
7
ITEM: BOX BOUNDS ff ff pp
-6.0000000000000000e+00 6.0000000000000000e+00
-6.0000000000000000e+00 6.0000000000000000e+00
-6.0000000000000000e+00 6.0000000000000000e+00
ITEM: ATOMS id type xs ys zs
1 2 0.534652 0.528991 0.5
2 1 0.599524 0.475649 0.5
3 1 0.537817 0.531872 0.5
4 1 0.471105 0.481867 0.5
5 1 0.546693 0.44653 0.5
6 1 0.593493 0.478703 0.5
7 1 0.496617 0.542001 0.5
ITEM: TIMESTEP
560
ITEM: NUMBER OF ATOMS
7
ITEM: BOX BOUNDS ff ff pp
-6.0000000000000000e+00 6.0000000000000000e+00
-6.0000000000000000e+00 6.0000000000000000e+00
-6.0000000000000000e+00 6.0000000000000000e+00
ITEM: ATOMS id type xs ys zs
1 2 0.53206 0.527823 0.5
2 1 0.59724 0.47487 0.5
3 1 0.5382 0.533736 0.5
4 1 0.468843 0.487478 0.5
5 1 0.540867 0.445022 0.5
6 1 0.590823 0.477395 0.5
7 1 0.4969 0.543453 0.5
ITEM: TIMESTEP
570
ITEM: NUMBER OF ATOMS
7
ITEM: BOX BOUNDS ff ff pp
-6.0000000000000000e+00 6.0000000000000000e+00
-6.0000000000000000e+00 6.0000000000000000e+00
-6.0000000000000000e+00 6.0000000000000000e+00
ITEM: ATOMS id type xs ys zs
1 2 0.524789 0.522755 0.5
2 1 0.59599 0.478102 0.5
3 1 0.538791 0.538427 0.5
4 1 0.468012 0.494452 0.5
5 1 0.531657 0.439879 0.5
6 1 0.589308 0.479963 0.5
7 1 0.496526 0.541724 0.5
ITEM: TIMESTEP
580
ITEM: NUMBER OF ATOMS
7
ITEM: BOX BOUNDS ff ff pp
-6.0000000000000000e+00 6.0000000000000000e+00
-6.0000000000000000e+00 6.0000000000000000e+00
-6.0000000000000000e+00 6.0000000000000000e+00
ITEM: ATOMS id type xs ys zs
1 2 0.521426 0.518117 0.5
2 1 0.5976 0.482317 0.5
3 1 0.539175 0.541565 0.5
4 1 0.469622 0.495551 0.5
5 1 0.527463 0.435155 0.5
6 1 0.591257 0.484621 0.5
7 1 0.496875 0.538437 0.5
ITEM: TIMESTEP
590
ITEM: NUMBER OF ATOMS
7
ITEM: BOX BOUNDS ff ff pp
-6.0000000000000000e+00 6.0000000000000000e+00
-6.0000000000000000e+00 6.0000000000000000e+00
-6.0000000000000000e+00 6.0000000000000000e+00
ITEM: ATOMS id type xs ys zs
1 2 0.521091 0.517113 0.5
2 1 0.598147 0.483341 0.5
3 1 0.539133 0.542119 0.5
4 1 0.470051 0.495431 0.5
5 1 0.526578 0.434031 0.5
6 1 0.59194 0.485972 0.5
7 1 0.496962 0.53762 0.5
ITEM: TIMESTEP
600
ITEM: NUMBER OF ATOMS
7
ITEM: BOX BOUNDS ff ff pp
-6.0000000000000000e+00 6.0000000000000000e+00
-6.0000000000000000e+00 6.0000000000000000e+00
-6.0000000000000000e+00 6.0000000000000000e+00
ITEM: ATOMS id type xs ys zs
1 2 0.520588 0.516204 0.5
2 1 0.598442 0.484212 0.5
3 1 0.539116 0.542683 0.5
4 1 0.470342 0.495608 0.5
5 1 0.525772 0.433126 0.5
6 1 0.592276 0.486915 0.5
7 1 0.497039 0.53697 0.5
ITEM: TIMESTEP
610
ITEM: NUMBER OF ATOMS
7
ITEM: BOX BOUNDS ff ff pp
-6.0000000000000000e+00 6.0000000000000000e+00
-6.0000000000000000e+00 6.0000000000000000e+00
-6.0000000000000000e+00 6.0000000000000000e+00
ITEM: ATOMS id type xs ys zs
1 2 0.519729 0.513714 0.5
2 1 0.599577 0.48686 0.5
3 1 0.539037 0.544081 0.5
4 1 0.471491 0.495272 0.5
5 1 0.524744 0.430734 0.5
6 1 0.593465 0.489576 0.5
7 1 0.497479 0.534941 0.5
ITEM: TIMESTEP
620
ITEM: NUMBER OF ATOMS
7
ITEM: BOX BOUNDS ff ff pp
-6.0000000000000000e+00 6.0000000000000000e+00
-6.0000000000000000e+00 6.0000000000000000e+00
-6.0000000000000000e+00 6.0000000000000000e+00
ITEM: ATOMS id type xs ys zs
1 2 0.519627 0.507934 0.5
2 1 0.602936 0.493582 0.5
3 1 0.538657 0.54655 0.5
4 1 0.475107 0.492683 0.5
5 1 0.524964 0.425246 0.5
6 1 0.596854 0.496189 0.5
7 1 0.499183 0.529709 0.5
ITEM: TIMESTEP
630
ITEM: NUMBER OF ATOMS
7
ITEM: BOX BOUNDS ff ff pp
-6.0000000000000000e+00 6.0000000000000000e+00
-6.0000000000000000e+00 6.0000000000000000e+00
-6.0000000000000000e+00 6.0000000000000000e+00
ITEM: ATOMS id type xs ys zs
1 2 0.52597 0.504864 0.5
2 1 0.60987 0.499573 0.5
3 1 0.539344 0.543994 0.5
4 1 0.482588 0.483004 0.5
5 1 0.539716 0.422902 0.5
6 1 0.603401 0.501302 0.5
7 1 0.502142 0.523539 0.5
ITEM: TIMESTEP
640
ITEM: NUMBER OF ATOMS
7
ITEM: BOX BOUNDS ff ff pp
-6.0000000000000000e+00 6.0000000000000000e+00
-6.0000000000000000e+00 6.0000000000000000e+00
-6.0000000000000000e+00 6.0000000000000000e+00
ITEM: ATOMS id type xs ys zs
1 2 0.527728 0.506372 0.5
2 1 0.611427 0.49849 0.5
3 1 0.540286 0.541863 0.5
4 1 0.483861 0.480599 0.5
5 1 0.545902 0.424962 0.5
6 1 0.604776 0.49983 0.5
7 1 0.502069 0.523441 0.5
ITEM: TIMESTEP
650
ITEM: NUMBER OF ATOMS
7
ITEM: BOX BOUNDS ff ff pp
-6.0000000000000000e+00 6.0000000000000000e+00
-6.0000000000000000e+00 6.0000000000000000e+00
-6.0000000000000000e+00 6.0000000000000000e+00
ITEM: ATOMS id type xs ys zs
1 2 0.526128 0.511953 0.5
2 1 0.607643 0.491403 0.5
3 1 0.540486 0.540742 0.5
4 1 0.478931 0.48459 0.5
5 1 0.541803 0.430071 0.5
6 1 0.601104 0.493211 0.5
7 1 0.499688 0.529225 0.5
ITEM: TIMESTEP
660
ITEM: NUMBER OF ATOMS
7
ITEM: BOX BOUNDS ff ff pp
-6.0000000000000000e+00 6.0000000000000000e+00
-6.0000000000000000e+00 6.0000000000000000e+00
-6.0000000000000000e+00 6.0000000000000000e+00
ITEM: ATOMS id type xs ys zs
1 2 0.527581 0.512521 0.5
2 1 0.608769 0.490679 0.5
3 1 0.541401 0.539714 0.5
4 1 0.480061 0.483319 0.5
5 1 0.544684 0.430902 0.5
6 1 0.602196 0.492378 0.5
7 1 0.500351 0.529106 0.5
ITEM: TIMESTEP
670
ITEM: NUMBER OF ATOMS
7
ITEM: BOX BOUNDS ff ff pp
-6.0000000000000000e+00 6.0000000000000000e+00
-6.0000000000000000e+00 6.0000000000000000e+00
-6.0000000000000000e+00 6.0000000000000000e+00
ITEM: ATOMS id type xs ys zs
1 2 0.533198 0.514115 0.5
2 1 0.61289 0.487399 0.5
3 1 0.545649 0.536576 0.5
4 1 0.483919 0.480628 0.5
5 1 0.551524 0.432641 0.5
6 1 0.606242 0.489009 0.5
7 1 0.503903 0.52927 0.5
ITEM: TIMESTEP
680
ITEM: NUMBER OF ATOMS
7
ITEM: BOX BOUNDS ff ff pp
-6.0000000000000000e+00 6.0000000000000000e+00
-6.0000000000000000e+00 6.0000000000000000e+00
-6.0000000000000000e+00 6.0000000000000000e+00
ITEM: ATOMS id type xs ys zs
1 2 0.538567 0.515749 0.5
2 1 0.617141 0.485916 0.5
3 1 0.54837 0.532893 0.5
4 1 0.488481 0.475036 0.5
5 1 0.561507 0.435511 0.5
6 1 0.610423 0.487266 0.5
7 1 0.506245 0.527973 0.5
ITEM: TIMESTEP
690
ITEM: NUMBER OF ATOMS
7
ITEM: BOX BOUNDS ff ff pp
-6.0000000000000000e+00 6.0000000000000000e+00
-6.0000000000000000e+00 6.0000000000000000e+00
-6.0000000000000000e+00 6.0000000000000000e+00
ITEM: ATOMS id type xs ys zs
1 2 0.538118 0.515482 0.5
2 1 0.616994 0.486372 0.5
3 1 0.548008 0.533063 0.5
4 1 0.488528 0.474721 0.5
5 1 0.5621 0.435659 0.5
6 1 0.610273 0.487652 0.5
7 1 0.505925 0.527615 0.5
ITEM: TIMESTEP
700
ITEM: NUMBER OF ATOMS
7
ITEM: BOX BOUNDS ff ff pp
-6.0000000000000000e+00 6.0000000000000000e+00
-6.0000000000000000e+00 6.0000000000000000e+00
-6.0000000000000000e+00 6.0000000000000000e+00
ITEM: ATOMS id type xs ys zs
1 2 0.53873 0.515714 0.5
2 1 0.61728 0.48575 0.5
3 1 0.548538 0.532803 0.5
4 1 0.488808 0.474708 0.5
5 1 0.562476 0.435818 0.5
6 1 0.610601 0.487124 0.5
7 1 0.506408 0.527841 0.5
ITEM: TIMESTEP
710
ITEM: NUMBER OF ATOMS
7
ITEM: BOX BOUNDS ff ff pp
-6.0000000000000000e+00 6.0000000000000000e+00
-6.0000000000000000e+00 6.0000000000000000e+00
-6.0000000000000000e+00 6.0000000000000000e+00
ITEM: ATOMS id type xs ys zs