ITEM: TIMESTEP
0
ITEM: NUMBER OF ATOMS
7
ITEM: BOX BOUNDS ff ff pp
-6.0000000000000000e+00 6.0000000000000000e+00
-6.0000000000000000e+00 6.0000000000000000e+00
-6.0000000000000000e+00 6.0000000000000000e+00
ITEM: ATOMS id type xs ys zs
1 2 0.500792 0.500307 0.5
2 1 0.582492 0.5 0.5
3 1 0.526845 0.560116 0.5
4 1 0.457041 0.515503 0.5
5 1 0.452594 0.433818 0.5
6 1 0.576564 0.502999 0.5
7 1 0.515028 0.519758 0.5
ITEM: TIMESTEP
10
ITEM: NUMBER OF ATOMS
7
ITEM: BOX BOUNDS ff ff pp
-6.0000000000000000e+00 6.0000000000000000e+00
-6.0000000000000000e+00 6.0000000000000000e+00
-6.0000000000000000e+00 6.0000000000000000e+00
ITEM: ATOMS id type xs ys zs
1 2 0.500207 0.501359 0.5
2 1 0.583996 0.49943 0.5
3 1 0.527076 0.560559 0.5
4 1 0.456626 0.515431 0.5
5 1 0.453959 0.431954 0.5
6 1 0.577986 0.502623 0.5
7 1 0.515856 0.519935 0.5
ITEM: TIMESTEP
20
ITEM: NUMBER OF ATOMS
7
ITEM: BOX BOUNDS ff ff pp
-6.0000000000000000e+00 6.0000000000000000e+00
-6.0000000000000000e+00 6.0000000000000000e+00
-6.0000000000000000e+00 6.0000000000000000e+00
ITEM: ATOMS id type xs ys zs
1 2 0.500395 0.50156 0.5
2 1 0.584162 0.499359 0.5
3 1 0.527227 0.560467 0.5
4 1 0.456799 0.515209 0.5
5 1 0.454816 0.431689 0.5
6 1 0.578138 0.502563 0.5
7 1 0.516211 0.519875 0.5
ITEM: TIMESTEP
30
ITEM: NUMBER OF ATOMS
7
ITEM: BOX BOUNDS ff ff pp
-6.0000000000000000e+00 6.0000000000000000e+00
-6.0000000000000000e+00 6.0000000000000000e+00
-6.0000000000000000e+00 6.0000000000000000e+00
ITEM: ATOMS id type xs ys zs
1 2 0.500484 0.501575 0.5
2 1 0.584276 0.49943 0.5
3 1 0.527241 0.560421 0.5
4 1 0.456826 0.515151 0.5
5 1 0.45502 0.431621 0.5
6 1 0.578194 0.502535 0.5
7 1 0.51639 0.519799 0.5
ITEM: TIMESTEP
40
ITEM: NUMBER OF ATOMS
7
ITEM: BOX BOUNDS ff ff pp
-6.0000000000000000e+00 6.0000000000000000e+00
-6.0000000000000000e+00 6.0000000000000000e+00
-6.0000000000000000e+00 6.0000000000000000e+00
ITEM: ATOMS id type xs ys zs
1 2 0.500755 0.501886 0.5
2 1 0.584485 0.499212 0.5
3 1 0.527522 0.560352 0.5
4 1 0.457222 0.514703 0.5
5 1 0.456601 0.431096 0.5
6 1 0.578529 0.502484 0.5
7 1 0.517049 0.519761 0.5
ITEM: TIMESTEP
50
ITEM: NUMBER OF ATOMS
7
ITEM: BOX BOUNDS ff ff pp
-6.0000000000000000e+00 6.0000000000000000e+00
-6.0000000000000000e+00 6.0000000000000000e+00
-6.0000000000000000e+00 6.0000000000000000e+00
ITEM: ATOMS id type xs ys zs
1 2 0.501287 0.502429 0.5
2 1 0.58488 0.498781 0.5
3 1 0.528075 0.560238 0.5
4 1 0.458023 0.513796 0.5
5 1 0.459739 0.430066 0.5
6 1 0.579192 0.502405 0.5
7 1 0.518227 0.51976 0.5
ITEM: TIMESTEP
60
ITEM: NUMBER OF ATOMS
7
ITEM: BOX BOUNDS ff ff pp
-6.0000000000000000e+00 6.0000000000000000e+00
-6.0000000000000000e+00 6.0000000000000000e+00
-6.0000000000000000e+00 6.0000000000000000e+00
ITEM: ATOMS id type xs ys zs
1 2 0.502126 0.502937 0.5
2 1 0.585571 0.498363 0.5
3 1 0.528827 0.560064 0.5
4 1 0.459164 0.512507 0.5
5 1 0.463928 0.428698 0.5
6 1 0.580176 0.502335 0.5
7 1 0.519492 0.519829 0.5
ITEM: TIMESTEP
70
ITEM: NUMBER OF ATOMS
7
ITEM: BOX BOUNDS ff ff pp
-6.0000000000000000e+00 6.0000000000000000e+00
-6.0000000000000000e+00 6.0000000000000000e+00
-6.0000000000000000e+00 6.0000000000000000e+00
ITEM: ATOMS id type xs ys zs
1 2 0.503221 0.503158 0.5
2 1 0.586562 0.498085 0.5
3 1 0.529717 0.559845 0.5
4 1 0.460521 0.51109 0.5
5 1 0.468132 0.427279 0.5
6 1 0.581402 0.502315 0.5
7 1 0.520071 0.520083 0.5
ITEM: TIMESTEP
80
ITEM: NUMBER OF ATOMS
7
ITEM: BOX BOUNDS ff ff pp
-6.0000000000000000e+00 6.0000000000000000e+00
-6.0000000000000000e+00 6.0000000000000000e+00
-6.0000000000000000e+00 6.0000000000000000e+00
ITEM: ATOMS id type xs ys zs
1 2 0.504619 0.50295 0.5
2 1 0.587927 0.498028 0.5
3 1 0.530756 0.559577 0.5
4 1 0.462101 0.509629 0.5
5 1 0.471919 0.42587 0.5
6 1 0.582907 0.502405 0.5
7 1 0.51973 0.520521 0.5
ITEM: TIMESTEP
90
ITEM: NUMBER OF ATOMS
7
ITEM: BOX BOUNDS ff ff pp
-6.0000000000000000e+00 6.0000000000000000e+00
-6.0000000000000000e+00 6.0000000000000000e+00
-6.0000000000000000e+00 6.0000000000000000e+00
ITEM: ATOMS id type xs ys zs
1 2 0.505811 0.502256 0.5
2 1 0.589207 0.498446 0.5
3 1 0.531415 0.559384 0.5
4 1 0.463231 0.508725 0.5
5 1 0.473429 0.424982 0.5
6 1 0.584098 0.502718 0.5
7 1 0.519131 0.520699 0.5
ITEM: TIMESTEP
100
ITEM: NUMBER OF ATOMS
7
ITEM: BOX BOUNDS ff ff pp
-6.0000000000000000e+00 6.0000000000000000e+00
-6.0000000000000000e+00 6.0000000000000000e+00
-6.0000000000000000e+00 6.0000000000000000e+00
ITEM: ATOMS id type xs ys zs
1 2 0.506437 0.501655 0.5
2 1 0.589922 0.498918 0.5
3 1 0.531601 0.559278 0.5
4 1 0.463683 0.508412 0.5
5 1 0.473421 0.424682 0.5
6 1 0.584659 0.503003 0.5
7 1 0.518857 0.520633 0.5
ITEM: TIMESTEP
110
ITEM: NUMBER OF ATOMS
7
ITEM: BOX BOUNDS ff ff pp
-6.0000000000000000e+00 6.0000000000000000e+00
-6.0000000000000000e+00 6.0000000000000000e+00
-6.0000000000000000e+00 6.0000000000000000e+00
ITEM: ATOMS id type xs ys zs
1 2 0.507518 0.500918 0.5
2 1 0.591088 0.499413 0.5
3 1 0.532122 0.559072 0.5
4 1 0.464588 0.507751 0.5
5 1 0.474262 0.42403 0.5
6 1 0.585664 0.503284 0.5
7 1 0.518141 0.520777 0.5
ITEM: TIMESTEP
120
ITEM: NUMBER OF ATOMS
7
ITEM: BOX BOUNDS ff ff pp
-6.0000000000000000e+00 6.0000000000000000e+00
-6.0000000000000000e+00 6.0000000000000000e+00
-6.0000000000000000e+00 6.0000000000000000e+00
ITEM: ATOMS id type xs ys zs
1 2 0.508515 0.499963 0.5
2 1 0.592169 0.500166 0.5
3 1 0.532404 0.55891 0.5
4 1 0.465288 0.507276 0.5
5 1 0.474248 0.423572 0.5
6 1 0.586519 0.503717 0.5
7 1 0.517818 0.520647 0.5
ITEM: TIMESTEP
130
ITEM: NUMBER OF ATOMS
7
ITEM: BOX BOUNDS ff ff pp
-6.0000000000000000e+00 6.0000000000000000e+00
-6.0000000000000000e+00 6.0000000000000000e+00
-6.0000000000000000e+00 6.0000000000000000e+00
ITEM: ATOMS id type xs ys zs
1 2 0.509336 0.498967 0.5
2 1 0.593042 0.500989 0.5
3 1 0.532518 0.558817 0.5
4 1 0.46576 0.507007 0.5
5 1 0.473618 0.423304 0.5
6 1 0.587154 0.504173 0.5
7 1 0.51764 0.520408 0.5
ITEM: TIMESTEP
140
ITEM: NUMBER OF ATOMS
7
ITEM: BOX BOUNDS ff ff pp
-6.0000000000000000e+00 6.0000000000000000e+00
-6.0000000000000000e+00 6.0000000000000000e+00
-6.0000000000000000e+00 6.0000000000000000e+00
ITEM: ATOMS id type xs ys zs
1 2 0.509637 0.498195 0.5
2 1 0.593353 0.50169 0.5
3 1 0.532304 0.558845 0.5
4 1 0.465724 0.507123 0.5
5 1 0.472207 0.423425 0.5
6 1 0.587275 0.504566 0.5
7 1 0.517832 0.520026 0.5
ITEM: TIMESTEP
150
ITEM: NUMBER OF ATOMS
7
ITEM: BOX BOUNDS ff ff pp
-6.0000000000000000e+00 6.0000000000000000e+00
-6.0000000000000000e+00 6.0000000000000000e+00
-6.0000000000000000e+00 6.0000000000000000e+00
ITEM: ATOMS id type xs ys zs
1 2 0.509554 0.497522 0.5
2 1 0.593252 0.502378 0.5
3 1 0.531782 0.558952 0.5
4 1 0.465262 0.507546 0.5
5 1 0.470071 0.423896 0.5
6 1 0.586996 0.50496 0.5
7 1 0.518441 0.519443 0.5
ITEM: TIMESTEP
160
ITEM: NUMBER OF ATOMS
7
ITEM: BOX BOUNDS ff ff pp
-6.0000000000000000e+00 6.0000000000000000e+00
-6.0000000000000000e+00 6.0000000000000000e+00
-6.0000000000000000e+00 6.0000000000000000e+00
ITEM: ATOMS id type xs ys zs
1 2 0.509775 0.497012 0.5
2 1 0.593452 0.502903 0.5
3 1 0.531564 0.558915 0.5
4 1 0.465153 0.507639 0.5
5 1 0.469152 0.424052 0.5
6 1 0.587045 0.50521 0.5
7 1 0.518771 0.519089 0.5
ITEM: TIMESTEP
170
ITEM: NUMBER OF ATOMS
7
ITEM: BOX BOUNDS ff ff pp
-6.0000000000000000e+00 6.0000000000000000e+00
-6.0000000000000000e+00 6.0000000000000000e+00
-6.0000000000000000e+00 6.0000000000000000e+00
ITEM: ATOMS id type xs ys zs
1 2 0.509881 0.496725 0.5
2 1 0.593537 0.503183 0.5
3 1 0.531445 0.55891 0.5
4 1 0.465099 0.507691 0.5
5 1 0.468646 0.424137 0.5
6 1 0.587063 0.505357 0.5
7 1 0.518982 0.518888 0.5
ITEM: TIMESTEP
180
ITEM: NUMBER OF ATOMS
7
ITEM: BOX BOUNDS ff ff pp
-6.0000000000000000e+00 6.0000000000000000e+00
-6.0000000000000000e+00 6.0000000000000000e+00
-6.0000000000000000e+00 6.0000000000000000e+00
ITEM: ATOMS id type xs ys zs
1 2 0.510163 0.496383 0.5
2 1 0.593787 0.503484 0.5
3 1 0.531433 0.558865 0.5
4 1 0.465204 0.507615 0.5
5 1 0.46844 0.424092 0.5
6 1 0.587244 0.505517 0.5
7 1 0.519093 0.518739 0.5
ITEM: TIMESTEP
190
ITEM: NUMBER OF ATOMS
7
ITEM: BOX BOUNDS ff ff pp
-6.0000000000000000e+00 6.0000000000000000e+00
-6.0000000000000000e+00 6.0000000000000000e+00
-6.0000000000000000e+00 6.0000000000000000e+00
ITEM: ATOMS id type xs ys zs
1 2 0.510305 0.496096 0.5
2 1 0.593894 0.503729 0.5
3 1 0.531364 0.558865 0.5
4 1 0.465218 0.507618 0.5
5 1 0.468077 0.424124 0.5
6 1 0.587308 0.505673 0.5
7 1 0.519273 0.518569 0.5
ITEM: TIMESTEP
200
ITEM: NUMBER OF ATOMS
7
ITEM: BOX BOUNDS ff ff pp
-6.0000000000000000e+00 6.0000000000000000e+00
-6.0000000000000000e+00 6.0000000000000000e+00
-6.0000000000000000e+00 6.0000000000000000e+00
ITEM: ATOMS id type xs ys zs
1 2 0.510412 0.495864 0.5
2 1 0.593968 0.503935 0.5
3 1 0.531276 0.558851 0.5
4 1 0.465188 0.507644 0.5
5 1 0.467733 0.424184 0.5
6 1 0.58734 0.505803 0.5
7 1 0.519451 0.518413 0.5
ITEM: TIMESTEP
210
ITEM: NUMBER OF ATOMS
7
ITEM: BOX BOUNDS ff ff pp
-6.0000000000000000e+00 6.0000000000000000e+00
-6.0000000000000000e+00 6.0000000000000000e+00
-6.0000000000000000e+00 6.0000000000000000e+00
ITEM: ATOMS id type xs ys zs
1 2 0.510474 0.495765 0.5
2 1 0.594015 0.50402 0.5
3 1 0.531255 0.558842 0.5
4 1 0.465197 0.507638 0.5
5 1 0.467634 0.424191 0.5
6 1 0.587372 0.505857 0.5
7 1 0.519514 0.518355 0.5
ITEM: TIMESTEP
220
ITEM: NUMBER OF ATOMS
7
ITEM: BOX BOUNDS ff ff pp
-6.0000000000000000e+00 6.0000000000000000e+00
-6.0000000000000000e+00 6.0000000000000000e+00
-6.0000000000000000e+00 6.0000000000000000e+00
ITEM: ATOMS id type xs ys zs
1 2 0.510674 0.495578 0.5
2 1 0.594187 0.504166 0.5
3 1 0.531293 0.558815 0.5
4 1 0.465319 0.507545 0.5
5 1 0.467666 0.424109 0.5
6 1 0.587521 0.50595 0.5
7 1 0.519567 0.518292 0.5
ITEM: TIMESTEP
230
ITEM: NUMBER OF ATOMS
7
ITEM: BOX BOUNDS ff ff pp
-6.0000000000000000e+00 6.0000000000000000e+00
-6.0000000000000000e+00 6.0000000000000000e+00
-6.0000000000000000e+00 6.0000000000000000e+00
ITEM: ATOMS id type xs ys zs
1 2 0.510634 0.495467 0.5
2 1 0.594127 0.504267 0.5
3 1 0.531183 0.558834 0.5
4 1 0.465214 0.507634 0.5
5 1 0.467295 0.424221 0.5
6 1 0.587445 0.506024 0.5
7 1 0.519725 0.518174 0.5
ITEM: TIMESTEP
240
ITEM: NUMBER OF ATOMS
7
ITEM: BOX BOUNDS ff ff pp
-6.0000000000000000e+00 6.0000000000000000e+00
-6.0000000000000000e+00 6.0000000000000000e+00
-6.0000000000000000e+00 6.0000000000000000e+00
ITEM: ATOMS id type xs ys zs
1 2 0.510606 0.495348 0.5
2 1 0.594078 0.504388 0.5
3 1 0.531061 0.558844 0.5
4 1 0.465097 0.507726 0.5
5 1 0.46691 0.424341 0.5
6 1 0.587371 0.506104 0.5
7 1 0.51991 0.518037 0.5
ITEM: TIMESTEP
250
ITEM: NUMBER OF ATOMS
7
ITEM: BOX BOUNDS ff ff pp
-6.0000000000000000e+00 6.0000000000000000e+00
-6.0000000000000000e+00 6.0000000000000000e+00
-6.0000000000000000e+00 6.0000000000000000e+00
ITEM: ATOMS id type xs ys zs
1 2 0.510589 0.495259 0.5
2 1 0.594044 0.504487 0.5
3 1 0.530964 0.558848 0.5
4 1 0.465007 0.507791 0.5
5 1 0.466634 0.424427 0.5
6 1 0.587317 0.506167 0.5
7 1 0.52009 0.517915 0.5
ITEM: TIMESTEP
260
ITEM: NUMBER OF ATOMS
7
ITEM: BOX BOUNDS ff ff pp
-6.0000000000000000e+00 6.0000000000000000e+00
-6.0000000000000000e+00 6.0000000000000000e+00
-6.0000000000000000e+00 6.0000000000000000e+00
ITEM: ATOMS id type xs ys zs
1 2 0.510548 0.495184 0.5
2 1 0.593986 0.504578 0.5
3 1 0.53086 0.558862 0.5
4 1 0.464916 0.507853 0.5
5 1 0.466367 0.424512 0.5
6 1 0.587248 0.506239 0.5
7 1 0.520335 0.517774 0.5
ITEM: TIMESTEP
270
ITEM: NUMBER OF ATOMS
7
ITEM: BOX BOUNDS ff ff pp
-6.0000000000000000e+00 6.0000000000000000e+00
-6.0000000000000000e+00 6.0000000000000000e+00
-6.0000000000000000e+00 6.0000000000000000e+00
ITEM: ATOMS id type xs ys zs
1 2 0.510576 0.49519 0.5
2 1 0.594016 0.50459 0.5
3 1 0.530856 0.558832 0.5
4 1 0.464902 0.507854 0.5
5 1 0.466392 0.424519 0.5
6 1 0.587261 0.506224 0.5
7 1 0.520311 0.517778 0.5
ITEM: TIMESTEP
280
ITEM: NUMBER OF ATOMS
7
ITEM: BOX BOUNDS ff ff pp
-6.0000000000000000e+00 6.0000000000000000e+00
-6.0000000000000000e+00 6.0000000000000000e+00
-6.0000000000000000e+00 6.0000000000000000e+00
ITEM: ATOMS id type xs ys zs
1 2 0.510507 0.495146 0.5
2 1 0.593937 0.504656 0.5
3 1 0.530754 0.558849 0.5
4 1 0.464799 0.507928 0.5
5 1 0.466132 0.424613 0.5
6 1 0.587174 0.506272 0.5
7 1 0.520519 0.51766 0.5
ITEM: TIMESTEP
290
ITEM: NUMBER OF ATOMS
7
ITEM: BOX BOUNDS ff ff pp
-6.0000000000000000e+00 6.0000000000000000e+00
-6.0000000000000000e+00 6.0000000000000000e+00
-6.0000000000000000e+00 6.0000000000000000e+00
ITEM: ATOMS id type xs ys zs
1 2 0.510606 0.495139 0.5
2 1 0.594036 0.504663 0.5
3 1 0.530819 0.558821 0.5
4 1 0.464891 0.507849 0.5
5 1 0.466342 0.424527 0.5
6 1 0.587268 0.506263 0.5
7 1 0.520467 0.517692 0.5
ITEM: TIMESTEP
300
ITEM: NUMBER OF ATOMS
7
ITEM: BOX BOUNDS ff ff pp
-6.0000000000000000e+00 6.0000000000000000e+00
-6.0000000000000000e+00 6.0000000000000000e+00
-6.0000000000000000e+00 6.0000000000000000e+00
ITEM: ATOMS id type xs ys zs
1 2 0.510529 0.495168 0.5
2 1 0.593965 0.504643 0.5
3 1 0.53078 0.558835 0.5
4 1 0.464821 0.507909 0.5
5 1 0.466216 0.424589 0.5
6 1 0.587197 0.506247 0.5
7 1 0.52046 0.517692 0.5
ITEM: TIMESTEP
310
ITEM: NUMBER OF ATOMS
7
ITEM: BOX BOUNDS ff ff pp
-6.0000000000000000e+00 6.0000000000000000e+00
-6.0000000000000000e+00 6.0000000000000000e+00
-6.0000000000000000e+00 6.0000000000000000e+00
ITEM: ATOMS id type xs ys zs
1 2 0.510549 0.495164 0.5
2 1 0.593985 0.504648 0.5
3 1 0.530789 0.558829 0.5
4 1 0.464836 0.507893 0.5
5 1 0.466254 0.424573 0.5
6 1 0.587216 0.506249 0.5
7 1 0.520466 0.517691 0.5
ITEM: TIMESTEP
320
ITEM: NUMBER OF ATOMS
7
ITEM: BOX BOUNDS ff ff pp
-6.0000000000000000e+00 6.0000000000000000e+00
-6.0000000000000000e+00 6.0000000000000000e+00
-6.0000000000000000e+00 6.0000000000000000e+00
ITEM: ATOMS id type xs ys zs
1 2 0.510563 0.495159 0.5
2 1 0.593997 0.504652 0.5
3 1 0.530797 0.558827 0.5
4 1 0.464851 0.507881 0.5
5 1 0.466281 0.42456 0.5
6 1 0.587229 0.506253 0.5
7 1 0.520473 0.517689 0.5
ITEM: TIMESTEP
330
ITEM: NUMBER OF ATOMS
7
ITEM: BOX BOUNDS ff ff pp
-6.0000000000000000e+00 6.0000000000000000e+00
-6.0000000000000000e+00 6.0000000000000000e+00
-6.0000000000000000e+00 6.0000000000000000e+00
ITEM: ATOMS id type xs ys zs
1 2 0.510615 0.495139 0.5
2 1 0.594045 0.504668 0.5
3 1 0.530822 0.558817 0.5
4 1 0.464898 0.507839 0.5
5 1 0.466367 0.424518 0.5
6 1 0.587276 0.506266 0.5
7 1 0.520487 0.517686 0.5
ITEM: TIMESTEP
340
ITEM: NUMBER OF ATOMS
7
ITEM: BOX BOUNDS ff ff pp
-6.0000000000000000e+00 6.0000000000000000e+00
-6.0000000000000000e+00 6.0000000000000000e+00
-6.0000000000000000e+00 6.0000000000000000e+00
ITEM: ATOMS id type xs ys zs
1 2 0.510677 0.495113 0.5
2 1 0.594103 0.504687 0.5
3 1 0.530853 0.558807 0.5
4 1 0.464957 0.507789 0.5
5 1 0.466468 0.424466 0.5
6 1 0.587334 0.506282 0.5
7 1 0.520505 0.51768 0.5
ITEM: TIMESTEP
350
ITEM: NUMBER OF ATOMS
7
ITEM: BOX BOUNDS ff ff pp
-6.0000000000000000e+00 6.0000000000000000e+00
-6.0000000000000000e+00 6.0000000000000000e+00
-6.0000000000000000e+00 6.0000000000000000e+00
ITEM: ATOMS id type xs ys zs
1 2 0.510742 0.495087 0.5
2 1 0.594162 0.504707 0.5
3 1 0.530884 0.558795 0.5
4 1 0.465016 0.507738 0.5
5 1 0.466571 0.424415 0.5
6 1 0.587392 0.506299 0.5
7 1 0.520522 0.517676 0.5
ITEM: TIMESTEP
360
ITEM: NUMBER OF ATOMS
7
ITEM: BOX BOUNDS ff ff pp
-6.0000000000000000e+00 6.0000000000000000e+00
-6.0000000000000000e+00 6.0000000000000000e+00
-6.0000000000000000e+00 6.0000000000000000e+00
ITEM: ATOMS id type xs ys zs
1 2 0.510919 0.495066 0.5
2 1 0.594335 0.504702 0.5
3 1 0.531012 0.558749 0.5
4 1 0.465197 0.507591 0.5
5 1 0.466949 0.42426 0.5
6 1 0.587567 0.506291 0.5
7 1 0.520392 0.517755 0.5
ITEM: TIMESTEP
370
ITEM: NUMBER OF ATOMS
7
ITEM: BOX BOUNDS ff ff pp
-6.0000000000000000e+00 6.0000000000000000e+00
-6.0000000000000000e+00 6.0000000000000000e+00
-6.0000000000000000e+00 6.0000000000000000e+00
ITEM: ATOMS id type xs ys zs
1 2 0.510982 0.495062 0.5
2 1 0.594403 0.504655 0.5
3 1 0.531124 0.558767 0.5
4 1 0.465325 0.507517 0.5
5 1 0.467138 0.42416 0.5
6 1 0.587653 0.506266 0.5
7 1 0.520177 0.517868 0.5
ITEM: TIMESTEP
380
ITEM: NUMBER OF ATOMS
7
ITEM: BOX BOUNDS ff ff pp
-6.0000000000000000e+00 6.0000000000000000e+00
-6.0000000000000000e+00 6.0000000000000000e+00
-6.0000000000000000e+00 6.0000000000000000e+00
ITEM: ATOMS id type xs ys zs
1 2 0.510925 0.495033 0.5
2 1 0.594338 0.504676 0.5
3 1 0.531059 0.558784 0.5
4 1 0.465248 0.507582 0.5
5 1 0.466929 0.424237 0.5
6 1 0.587586 0.506294 0.5
7 1 0.520242 0.517821 0.5
ITEM: TIMESTEP
390
ITEM: NUMBER OF ATOMS
7
ITEM: BOX BOUNDS ff ff pp
-6.0000000000000000e+00 6.0000000000000000e+00
-6.0000000000000000e+00 6.0000000000000000e+00
-6.0000000000000000e+00 6.0000000000000000e+00
ITEM: ATOMS id type xs ys zs
1 2 0.510907 0.495016 0.5
2 1 0.594316 0.504693 0.5
3 1 0.531027 0.558785 0.5
4 1 0.46521 0.507612 0.5
5 1 0.466833 0.424273 0.5
6 1 0.58756 0.506306 0.5
7 1 0.520271 0.517797 0.5
ITEM: TIMESTEP
400
ITEM: NUMBER OF ATOMS
7
ITEM: BOX BOUNDS ff ff pp
-6.0000000000000000e+00 6.0000000000000000e+00
-6.0000000000000000e+00 6.0000000000000000e+00
-6.0000000000000000e+00 6.0000000000000000e+00
ITEM: ATOMS id type xs ys zs
1 2 0.510821 0.495028 0.5
2 1 0.594232 0.50469 0.5
3 1 0.530966 0.558802 0.5
4 1 0.465115 0.507692 0.5
5 1 0.466638 0.424358 0.5
6 1 0.587473 0.5063 0.5
7 1 0.520288 0.517777 0.5
ITEM: TIMESTEP
410
ITEM: NUMBER OF ATOMS
7
ITEM: BOX BOUNDS ff ff pp
-6.0000000000000000e+00 6.0000000000000000e+00
-6.0000000000000000e+00 6.0000000000000000e+00
-6.0000000000000000e+00 6.0000000000000000e+00
ITEM: ATOMS id type xs ys zs
1 2 0.510876 0.494996 0.5
2 1 0.594282 0.504719 0.5
3 1 0.530982 0.558789 0.5
4 1 0.465152 0.507658 0.5
5 1 0.466693 0.424327 0.5
6 1 0.587517 0.506318 0.5
7 1 0.520313 0.517763 0.5
ITEM: TIMESTEP
420
ITEM: NUMBER OF ATOMS
7
ITEM: BOX BOUNDS ff ff pp
-6.0000000000000000e+00 6.0000000000000000e+00
-6.0000000000000000e+00 6.0000000000000000e+00
-6.0000000000000000e+00 6.0000000000000000e+00
ITEM: ATOMS id type xs ys zs
1 2 0.510914 0.494967 0.5
2 1 0.594314 0.504743 0.5
3 1 0.530992 0.558784 0.5
4 1 0.465181 0.507634 0.5
5 1 0.466723 0.424304 0.5
6 1 0.587547 0.506335 0.5
7 1 0.520339 0.517747 0.5
ITEM: TIMESTEP
430
ITEM: NUMBER OF ATOMS
7
ITEM: BOX BOUNDS ff ff pp
-6.0000000000000000e+00 6.0000000000000000e+00
-6.0000000000000000e+00 6.0000000000000000e+00
-6.0000000000000000e+00 6.0000000000000000e+00
ITEM: ATOMS id type xs ys zs
1 2 0.510906 0.494962 0.5
2 1 0.594304 0.504749 0.5
3 1 0.530979 0.558785 0.5
4 1 0.465165 0.507646 0.5
5 1 0.466685 0.424319 0.5
6 1 0.587536 0.50634 0.5
7 1 0.520352 0.517738 0.5
ITEM: TIMESTEP
440
ITEM: NUMBER OF ATOMS
7
ITEM: BOX BOUNDS ff ff pp
-6.0000000000000000e+00 6.0000000000000000e+00
-6.0000000000000000e+00 6.0000000000000000e+00
-6.0000000000000000e+00 6.0000000000000000e+00
ITEM: ATOMS id type xs ys zs
1 2 0.510876 0.494968 0.5
2 1 0.594275 0.504747 0.5
3 1 0.530959 0.55879 0.5
4 1 0.465133 0.507673 0.5
5 1 0.466622 0.424347 0.5
6 1 0.587506 0.506336 0.5
7 1 0.520356 0.517732 0.5
ITEM: TIMESTEP
450
ITEM: NUMBER OF ATOMS
7
ITEM: BOX BOUNDS ff ff pp
-6.0000000000000000e+00 6.0000000000000000e+00
-6.0000000000000000e+00 6.0000000000000000e+00
-6.0000000000000000e+00 6.0000000000000000e+00
ITEM: ATOMS id type xs ys zs
1 2 0.51088 0.494963 0.5
2 1 0.594279 0.504752 0.5
3 1 0.530957 0.558788 0.5
4 1 0.465134 0.507671 0.5
5 1 0.466621 0.424347 0.5
6 1 0.587509 0.506339 0.5
7 1 0.520364 0.517728 0.5
ITEM: TIMESTEP
460
ITEM: NUMBER OF ATOMS
7
ITEM: BOX BOUNDS ff ff pp
-6.0000000000000000e+00 6.0000000000000000e+00
-6.0000000000000000e+00 6.0000000000000000e+00
-6.0000000000000000e+00 6.0000000000000000e+00
ITEM: ATOMS id type xs ys zs
1 2 0.510961 0.494927 0.5
2 1 0.594352 0.50478 0.5
3 1 0.530994 0.558774 0.5
4 1 0.465205 0.50761 0.5
5 1 0.46674 0.424286 0.5
6 1 0.58758 0.506361 0.5
7 1 0.520389 0.517718 0.5
ITEM: TIMESTEP
470
ITEM: NUMBER OF ATOMS
7
ITEM: BOX BOUNDS ff ff pp
-6.0000000000000000e+00 6.0000000000000000e+00
-6.0000000000000000e+00 6.0000000000000000e+00
-6.0000000000000000e+00 6.0000000000000000e+00
ITEM: ATOMS id type xs ys zs
1 2 0.511028 0.494896 0.5
2 1 0.594414 0.504803 0.5
3 1 0.531024 0.558762 0.5
4 1 0.465265 0.507558 0.5
5 1 0.46684 0.424234 0.5
6 1 0.587641 0.506381 0.5
7 1 0.520409 0.517711 0.5
ITEM: TIMESTEP
480
ITEM: NUMBER OF ATOMS
7
ITEM: BOX BOUNDS ff ff pp
-6.0000000000000000e+00 6.0000000000000000e+00
-6.0000000000000000e+00 6.0000000000000000e+00
-6.0000000000000000e+00 6.0000000000000000e+00
ITEM: ATOMS id type xs ys zs
1 2 0.511082 0.494871 0.5
2 1 0.594462 0.504821 0.5
3 1 0.531051 0.558754 0.5
4 1 0.465315 0.507516 0.5
5 1 0.466921 0.424191 0.5
6 1 0.587689 0.506396 0.5
7 1 0.520422 0.517705 0.5
ITEM: TIMESTEP
490
ITEM: NUMBER OF ATOMS
7
ITEM: BOX BOUNDS ff ff pp
-6.0000000000000000e+00 6.0000000000000000e+00
-6.0000000000000000e+00 6.0000000000000000e+00
-6.0000000000000000e+00 6.0000000000000000e+00
ITEM: ATOMS id type xs ys zs
1 2 0.511059 0.494876 0.5
2 1 0.594439 0.504819 0.5
3 1 0.531034 0.558757 0.5
4 1 0.465289 0.507537 0.5
5 1 0.466871 0.424214 0.5
6 1 0.587666 0.506395 0.5
7 1 0.520428 0.517701 0.5
ITEM: TIMESTEP
500
ITEM: NUMBER OF ATOMS
7
ITEM: BOX BOUNDS ff ff pp
-6.0000000000000000e+00 6.0000000000000000e+00
-6.0000000000000000e+00 6.0000000000000000e+00
-6.0000000000000000e+00 6.0000000000000000e+00
ITEM: ATOMS id type xs ys zs
1 2 0.511135 0.494843 0.5
2 1 0.59451 0.504843 0.5
3 1 0.531069 0.558742 0.5
4 1 0.465356 0.507479 0.5
5 1 0.466988 0.424156 0.5
6 1 0.587735 0.506414 0.5
7 1 0.520447 0.517695 0.5
ITEM: TIMESTEP
510
ITEM: NUMBER OF ATOMS
7
ITEM: BOX BOUNDS ff ff pp
-6.0000000000000000e+00 6.0000000000000000e+00
-6.0000000000000000e+00 6.0000000000000000e+00
-6.0000000000000000e+00 6.0000000000000000e+00
ITEM: ATOMS id type xs ys zs
1 2 0.511322 0.494875 0.5
2 1 0.594705 0.504784 0.5
3 1 0.531247 0.558685 0.5
4 1 0.465571 0.507312 0.5
5 1 0.467496 0.42397 0.5
6 1 0.587934 0.506355 0.5
7 1 0.52016 0.517859 0.5
ITEM: TIMESTEP
520
ITEM: NUMBER OF ATOMS
7
ITEM: BOX BOUNDS ff ff pp
-6.0000000000000000e+00 6.0000000000000000e+00
-6.0000000000000000e+00 6.0000000000000000e+00
-6.0000000000000000e+00 6.0000000000000000e+00
ITEM: ATOMS id type xs ys zs
1 2 0.511434 0.494967 0.5
2 1 0.594846 0.504633 0.5
3 1 0.531479 0.558671 0.5
4 1 0.465798 0.507169 0.5
5 1 0.468005 0.42378 0.5
6 1 0.5881 0.506235 0.5
7 1 0.51964 0.518144 0.5
ITEM: TIMESTEP
530
ITEM: NUMBER OF ATOMS
7
ITEM: BOX BOUNDS ff ff pp
-6.0000000000000000e+00 6.0000000000000000e+00
-6.0000000000000000e+00 6.0000000000000000e+00
-6.0000000000000000e+00 6.0000000000000000e+00
ITEM: ATOMS id type xs ys zs
1 2 0.511557 0.495004 0.5
2 1 0.594982 0.504527 0.5
3 1 0.531668 0.558653 0.5
4 1 0.466001 0.507039 0.5
5 1 0.468414 0.423621 0.5
6 1 0.588258 0.506162 0.5
7 1 0.519226 0.518369 0.5
ITEM: TIMESTEP
540
ITEM: NUMBER OF ATOMS
7
ITEM: BOX BOUNDS ff ff pp
-6.0000000000000000e+00 6.0000000000000000e+00
-6.0000000000000000e+00 6.0000000000000000e+00
-6.0000000000000000e+00 6.0000000000000000e+00
ITEM: ATOMS id type xs ys zs
1 2 0.511369 0.49483 0.5
2 1 0.594752 0.50465 0.5
3 1 0.531435 0.55875 0.5
4 1 0.465757 0.507259 0.5
5 1 0.467591 0.423874 0.5
6 1 0.588031 0.506312 0.5
7 1 0.519543 0.518154 0.5
ITEM: TIMESTEP
550
ITEM: NUMBER OF ATOMS
7
ITEM: BOX BOUNDS ff ff pp
-6.0000000000000000e+00 6.0000000000000000e+00
-6.0000000000000000e+00 6.0000000000000000e+00
-6.0000000000000000e+00 6.0000000000000000e+00
ITEM: ATOMS id type xs ys zs
1 2 0.511328 0.494768 0.5
2 1 0.594699 0.504717 0.5
3 1 0.531341 0.558753 0.5
4 1 0.465646 0.507345 0.5
5 1 0.467302 0.423977 0.5
6 1 0.587958 0.506352 0.5
7 1 0.519644 0.518071 0.5
ITEM: TIMESTEP
560
ITEM: NUMBER OF ATOMS
7
ITEM: BOX BOUNDS ff ff pp
-6.0000000000000000e+00 6.0000000000000000e+00
-6.0000000000000000e+00 6.0000000000000000e+00
-6.0000000000000000e+00 6.0000000000000000e+00
ITEM: ATOMS id type xs ys zs
1 2 0.511289 0.494731 0.5
2 1 0.594653 0.504759 0.5
3 1 0.531279 0.558763 0.5
4 1 0.465573 0.507405 0.5
5 1 0.467102 0.424048 0.5
6 1 0.587902 0.506374 0.5
7 1 0.519709 0.518018 0.5
ITEM: TIMESTEP
570
ITEM: NUMBER OF ATOMS
7
ITEM: BOX BOUNDS ff ff pp
-6.0000000000000000e+00 6.0000000000000000e+00
-6.0000000000000000e+00 6.0000000000000000e+00
-6.0000000000000000e+00 6.0000000000000000e+00
ITEM: ATOMS id type xs ys zs
1 2 0.511219 0.49471 0.5
2 1 0.594578 0.50479 0.5
3 1 0.531198 0.558775 0.5
4 1 0.465468 0.507488 0.5
5 1 0.466861 0.424145 0.5
6 1 0.587817 0.506389 0.5
7 1 0.51978 0.517965 0.5
ITEM: TIMESTEP
580
ITEM: NUMBER OF ATOMS
7
ITEM: BOX BOUNDS ff ff pp
-6.0000000000000000e+00 6.0000000000000000e+00
-6.0000000000000000e+00 6.0000000000000000e+00
-6.0000000000000000e+00 6.0000000000000000e+00
ITEM: ATOMS id type xs ys zs
1 2 0.511438 0.494615 0.5
2 1 0.59478 0.504861 0.5
3 1 0.531301 0.55873 0.5
4 1 0.465655 0.507329 0.5
5 1 0.467179 0.423984 0.5
6 1 0.588011 0.506436 0.5
7 1 0.519796 0.51796 0.5
ITEM: TIMESTEP
590
ITEM: NUMBER OF ATOMS
7
ITEM: BOX BOUNDS ff ff pp
-6.0000000000000000e+00 6.0000000000000000e+00
-6.0000000000000000e+00 6.0000000000000000e+00
-6.0000000000000000e+00 6.0000000000000000e+00
ITEM: ATOMS id type xs ys zs
1 2 0.51162 0.494536 0.5
2 1 0.594945 0.504912 0.5
3 1 0.531396 0.5587 0.5
4 1 0.465825 0.507191 0.5
5 1 0.467454 0.423843 0.5
6 1 0.588176 0.506478 0.5
7 1 0.519793 0.517965 0.5
ITEM: TIMESTEP
600
ITEM: NUMBER OF ATOMS
7
ITEM: BOX BOUNDS ff ff pp
-6.0000000000000000e+00 6.0000000000000000e+00
-6.0000000000000000e+00 6.0000000000000000e+00
-6.0000000000000000e+00 6.0000000000000000e+00
ITEM: ATOMS id type xs ys zs
1 2 0.511623 0.494514 0.5
2 1 0.594942 0.504927 0.5
3 1 0.53139 0.558706 0.5
4 1 0.465825 0.507195 0.5
5 1 0.467415 0.423848 0.5
6 1 0.588174 0.506493 0.5
7 1 0.519813 0.517949 0.5
ITEM: TIMESTEP
610
ITEM: NUMBER OF ATOMS
7
ITEM: BOX BOUNDS ff ff pp
-6.0000000000000000e+00 6.0000000000000000e+00
-6.0000000000000000e+00 6.0000000000000000e+00
-6.0000000000000000e+00 6.0000000000000000e+00
ITEM: ATOMS id type xs ys zs
1 2 0.511657 0.494486 0.5
2 1 0.594971 0.504947 0.5
3 1 0.531394 0.558698 0.5
4 1 0.465844 0.507177 0.5
5 1 0.467434 0.423835 0.5
6 1 0.5882 0.506509 0.5
7 1 0.519831 0.517939 0.5
ITEM: TIMESTEP
620
ITEM: NUMBER OF ATOMS
7
ITEM: BOX BOUNDS ff ff pp
-6.0000000000000000e+00 6.0000000000000000e+00
-6.0000000000000000e+00 6.0000000000000000e+00
-6.0000000000000000e+00 6.0000000000000000e+00
ITEM: ATOMS id type xs ys zs
1 2 0.511777 0.494434 0.5
2 1 0.59508 0.504983 0.5
3 1 0.531453 0.558675 0.5
4 1 0.465951 0.507088 0.5
5 1 0.46761 0.423746 0.5
6 1 0.588307 0.506537 0.5
7 1 0.519834 0.517939 0.5
ITEM: TIMESTEP
630
ITEM: NUMBER OF ATOMS
7
ITEM: BOX BOUNDS ff ff pp
-6.0000000000000000e+00 6.0000000000000000e+00
-6.0000000000000000e+00 6.0000000000000000e+00
-6.0000000000000000e+00 6.0000000000000000e+00
ITEM: ATOMS id type xs ys zs
1 2 0.511951 0.494476 0.5
2 1 0.595258 0.50492 0.5
3 1 0.531604 0.558595 0.5
4 1 0.466134 0.506938 0.5
5 1 0.468099 0.423598 0.5
6 1 0.588486 0.506474 0.5
7 1 0.519571 0.518096 0.5
ITEM: TIMESTEP
640
ITEM: NUMBER OF ATOMS
7
ITEM: BOX BOUNDS ff ff pp
-6.0000000000000000e+00 6.0000000000000000e+00
-6.0000000000000000e+00 6.0000000000000000e+00
-6.0000000000000000e+00 6.0000000000000000e+00
ITEM: ATOMS id type xs ys zs
1 2 0.512261 0.495068 0.5
2 1 0.595692 0.504311 0.5
3 1 0.532247 0.558329 0.5
4 1 0.466658 0.506533 0.5
5 1 0.470054 0.423137 0.5
6 1 0.588951 0.505914 0.5
7 1 0.517881 0.519072 0.5
ITEM: TIMESTEP
650
ITEM: NUMBER OF ATOMS
7
ITEM: BOX BOUNDS ff ff pp
-6.0000000000000000e+00 6.0000000000000000e+00
-6.0000000000000000e+00 6.0000000000000000e+00
-6.0000000000000000e+00 6.0000000000000000e+00
ITEM: ATOMS id type xs ys zs
1 2 0.512974 0.496158 0.5
2 1 0.596663 0.503024 0.5
3 1 0.53383 0.557833 0.5
4 1 0.468109 0.505496 0.5
5 1 0.474485 0.421973 0.5
6 1 0.590076 0.504832 0.5
7 1 0.51424 0.521202 0.5
ITEM: TIMESTEP
660
ITEM: NUMBER OF ATOMS
7
ITEM: BOX BOUNDS ff ff pp
-6.0000000000000000e+00 6.0000000000000000e+00
-6.0000000000000000e+00 6.0000000000000000e+00
-6.0000000000000000e+00 6.0000000000000000e+00
ITEM: ATOMS id type xs ys zs
1 2 0.513241 0.495774 0.5
2 1 0.596877 0.503083 0.5
3 1 0.534023 0.557879 0.5
4 1 0.468468 0.50535 0.5
5 1 0.474419 0.421797 0.5
6 1 0.590356 0.505025 0.5
7 1 0.513781 0.521391 0.5
ITEM: TIMESTEP
670
ITEM: NUMBER OF ATOMS
7
ITEM: BOX BOUNDS ff ff pp
-6.0000000000000000e+00 6.0000000000000000e+00
-6.0000000000000000e+00 6.0000000000000000e+00
-6.0000000000000000e+00 6.0000000000000000e+00
ITEM: ATOMS id type xs ys zs
1 2 0.513427 0.495403 0.5
2 1 0.596998 0.503251 0.5
3 1 0.534008 0.557893 0.5
4 1 0.468546 0.505364 0.5
5 1 0.47392 0.421821 0.5
6 1 0.590475 0.505228 0.5
7 1 0.513589 0.521395 0.5
ITEM: TIMESTEP
680
ITEM: NUMBER OF ATOMS
7
ITEM: BOX BOUNDS ff ff pp
-6.0000000000000000e+00 6.0000000000000000e+00
-6.0000000000000000e+00 6.0000000000000000e+00
-6.0000000000000000e+00 6.0000000000000000e+00
ITEM: ATOMS id type xs ys zs
1 2 0.513593 0.49504 0.5
2 1 0.597105 0.503456 0.5
3 1 0.533959 0.5579 0.5
4 1 0.468564 0.505412 0.5
5 1 0.473348 0.421887 0.5
6 1 0.590553 0.505399 0.5
7 1 0.513432 0.521374 0.5
ITEM: TIMESTEP
690
ITEM: NUMBER OF ATOMS
7
ITEM: BOX BOUNDS ff ff pp
-6.0000000000000000e+00 6.0000000000000000e+00
-6.0000000000000000e+00 6.0000000000000000e+00
-6.0000000000000000e+00 6.0000000000000000e+00
ITEM: ATOMS id type xs ys zs
1 2 0.513798 0.494655 0.5
2 1 0.597252 0.503687 0.5
3 1 0.533932 0.557894 0.5
4 1 0.468609 0.505444 0.5
5 1 0.472813 0.421935 0.5
6 1 0.590658 0.505555 0.5
7 1 0.51323 0.521372 0.5
ITEM: TIMESTEP
700
ITEM: NUMBER OF ATOMS
7
ITEM: BOX BOUNDS ff ff pp
-6.0000000000000000e+00 6.0000000000000000e+00
-6.0000000000000000e+00 6.0000000000000000e+00
-6.0000000000000000e+00 6.0000000000000000e+00
ITEM: ATOMS id type xs ys zs
1 2 0.513847 0.494325 0.5
2 1 0.597246 0.503896 0.5
3 1 0.533814 0.557943 0.5
4 1 0.468515 0.505575 0.5
5 1 0.472066 0.422083 0.5
6 1 0.590616 0.505697 0.5
7 1 0.513181 0.521303 0.5
ITEM: TIMESTEP
710
ITEM: NUMBER OF ATOMS
7
ITEM: BOX BOUNDS ff ff pp
-6.0000000000000000e+00 6.0000000000000000e+00
-6.0000000000000000e+00 6.0000000000000000e+00