ITEM: TIMESTEP
0
ITEM: NUMBER OF ATOMS
7
ITEM: BOX BOUNDS ff ff pp
-6.0000000000000000e+00 6.0000000000000000e+00
-6.0000000000000000e+00 6.0000000000000000e+00
-6.0000000000000000e+00 6.0000000000000000e+00
ITEM: ATOMS id type xs ys zs
1 2 0.5 0.5 0.5
2 1 0.583333 0.5 0.5
3 1 0.526268 0.560729 0.5
4 1 0.455639 0.516504 0.5
5 1 0.450615 0.433322 0.5
6 1 0.577281 0.503005 0.5
7 1 0.51476 0.519903 0.5
ITEM: TIMESTEP
10
ITEM: NUMBER OF ATOMS
7
ITEM: BOX BOUNDS ff ff pp
-6.0000000000000000e+00 6.0000000000000000e+00
-6.0000000000000000e+00 6.0000000000000000e+00
-6.0000000000000000e+00 6.0000000000000000e+00
ITEM: ATOMS id type xs ys zs
1 2 0.499805 0.500316 0.5
2 1 0.583691 0.500204 0.5
3 1 0.526303 0.560628 0.5
4 1 0.455655 0.516419 0.5
5 1 0.450478 0.433226 0.5
6 1 0.57728 0.502857 0.5
7 1 0.514685 0.519814 0.5
ITEM: TIMESTEP
20
ITEM: NUMBER OF ATOMS
7
ITEM: BOX BOUNDS ff ff pp
-6.0000000000000000e+00 6.0000000000000000e+00
-6.0000000000000000e+00 6.0000000000000000e+00
-6.0000000000000000e+00 6.0000000000000000e+00
ITEM: ATOMS id type xs ys zs
1 2 0.499808 0.500356 0.5
2 1 0.583726 0.500258 0.5
3 1 0.5263 0.560606 0.5
4 1 0.455649 0.516409 0.5
5 1 0.450472 0.43323 0.5
6 1 0.577271 0.502802 0.5
7 1 0.51467 0.519802 0.5
ITEM: TIMESTEP
30
ITEM: NUMBER OF ATOMS
7
ITEM: BOX BOUNDS ff ff pp
-6.0000000000000000e+00 6.0000000000000000e+00
-6.0000000000000000e+00 6.0000000000000000e+00
-6.0000000000000000e+00 6.0000000000000000e+00
ITEM: ATOMS id type xs ys zs
1 2 0.49981 0.500375 0.5
2 1 0.583748 0.500293 0.5
3 1 0.526298 0.560594 0.5
4 1 0.455644 0.516407 0.5
5 1 0.450472 0.433233 0.5
6 1 0.577264 0.502765 0.5
7 1 0.514662 0.519796 0.5
ITEM: TIMESTEP
40
ITEM: NUMBER OF ATOMS
7
ITEM: BOX BOUNDS ff ff pp
-6.0000000000000000e+00 6.0000000000000000e+00
-6.0000000000000000e+00 6.0000000000000000e+00
-6.0000000000000000e+00 6.0000000000000000e+00
ITEM: ATOMS id type xs ys zs
1 2 0.499811 0.500384 0.5
2 1 0.58376 0.500312 0.5
3 1 0.526297 0.560588 0.5
4 1 0.45564 0.516407 0.5
5 1 0.450472 0.433234 0.5
6 1 0.577259 0.502744 0.5
7 1 0.514659 0.519794 0.5
ITEM: TIMESTEP
50
ITEM: NUMBER OF ATOMS
7
ITEM: BOX BOUNDS ff ff pp
-6.0000000000000000e+00 6.0000000000000000e+00
-6.0000000000000000e+00 6.0000000000000000e+00
-6.0000000000000000e+00 6.0000000000000000e+00
ITEM: ATOMS id type xs ys zs
1 2 0.499812 0.50039 0.5
2 1 0.583769 0.500328 0.5
3 1 0.526296 0.560584 0.5
4 1 0.455637 0.516407 0.5
5 1 0.450473 0.433235 0.5
6 1 0.577254 0.502727 0.5
7 1 0.514656 0.519793 0.5
ITEM: TIMESTEP
60
ITEM: NUMBER OF ATOMS
7
ITEM: BOX BOUNDS ff ff pp
-6.0000000000000000e+00 6.0000000000000000e+00
-6.0000000000000000e+00 6.0000000000000000e+00
-6.0000000000000000e+00 6.0000000000000000e+00
ITEM: ATOMS id type xs ys zs
1 2 0.499813 0.500395 0.5
2 1 0.583777 0.500344 0.5
3 1 0.526295 0.56058 0.5
4 1 0.455633 0.516408 0.5
5 1 0.450475 0.433236 0.5
6 1 0.577249 0.502709 0.5
7 1 0.514655 0.519791 0.5
ITEM: TIMESTEP
70
ITEM: NUMBER OF ATOMS
7
ITEM: BOX BOUNDS ff ff pp
-6.0000000000000000e+00 6.0000000000000000e+00
-6.0000000000000000e+00 6.0000000000000000e+00
-6.0000000000000000e+00 6.0000000000000000e+00
ITEM: ATOMS id type xs ys zs
1 2 0.499813 0.500398 0.5
2 1 0.583784 0.500357 0.5
3 1 0.526294 0.560578 0.5
4 1 0.455629 0.516409 0.5
5 1 0.450476 0.433236 0.5
6 1 0.577245 0.502695 0.5
7 1 0.514655 0.51979 0.5
ITEM: TIMESTEP
80
ITEM: NUMBER OF ATOMS
7
ITEM: BOX BOUNDS ff ff pp
-6.0000000000000000e+00 6.0000000000000000e+00
-6.0000000000000000e+00 6.0000000000000000e+00
-6.0000000000000000e+00 6.0000000000000000e+00
ITEM: ATOMS id type xs ys zs
1 2 0.499813 0.5004 0.5
2 1 0.583788 0.500366 0.5
3 1 0.526294 0.560576 0.5
4 1 0.455627 0.51641 0.5
5 1 0.450477 0.433237 0.5
6 1 0.577242 0.502685 0.5
7 1 0.514656 0.519789 0.5
ITEM: TIMESTEP
90
ITEM: NUMBER OF ATOMS
7
ITEM: BOX BOUNDS ff ff pp
-6.0000000000000000e+00 6.0000000000000000e+00
-6.0000000000000000e+00 6.0000000000000000e+00
-6.0000000000000000e+00 6.0000000000000000e+00
ITEM: ATOMS id type xs ys zs
1 2 0.499813 0.500402 0.5
2 1 0.58379 0.500371 0.5
3 1 0.526293 0.560575 0.5
4 1 0.455625 0.516411 0.5
5 1 0.450478 0.433237 0.5
6 1 0.57724 0.502679 0.5
7 1 0.514658 0.519788 0.5
ITEM: TIMESTEP
100
ITEM: NUMBER OF ATOMS
7
ITEM: BOX BOUNDS ff ff pp
-6.0000000000000000e+00 6.0000000000000000e+00
-6.0000000000000000e+00 6.0000000000000000e+00
-6.0000000000000000e+00 6.0000000000000000e+00
ITEM: ATOMS id type xs ys zs
1 2 0.499813 0.500403 0.5
2 1 0.583791 0.500373 0.5
3 1 0.526292 0.560574 0.5
4 1 0.455624 0.516412 0.5
5 1 0.450478 0.433238 0.5
6 1 0.577239 0.502677 0.5
7 1 0.51466 0.519787 0.5
ITEM: TIMESTEP
110
ITEM: NUMBER OF ATOMS
7
ITEM: BOX BOUNDS ff ff pp
-6.0000000000000000e+00 6.0000000000000000e+00
-6.0000000000000000e+00 6.0000000000000000e+00
-6.0000000000000000e+00 6.0000000000000000e+00
ITEM: ATOMS id type xs ys zs
1 2 0.499812 0.500404 0.5
2 1 0.583791 0.500374 0.5
3 1 0.526292 0.560574 0.5
4 1 0.455623 0.516412 0.5
5 1 0.450479 0.433238 0.5
6 1 0.577238 0.502676 0.5
7 1 0.514662 0.519785 0.5
ITEM: TIMESTEP
120
ITEM: NUMBER OF ATOMS
7
ITEM: BOX BOUNDS ff ff pp
-6.0000000000000000e+00 6.0000000000000000e+00
-6.0000000000000000e+00 6.0000000000000000e+00
-6.0000000000000000e+00 6.0000000000000000e+00
ITEM: ATOMS id type xs ys zs
1 2 0.499812 0.500405 0.5
2 1 0.58379 0.500375 0.5
3 1 0.526291 0.560574 0.5
4 1 0.455622 0.516412 0.5
5 1 0.45048 0.433238 0.5
6 1 0.577237 0.502675 0.5
7 1 0.514666 0.519784 0.5
ITEM: TIMESTEP
130
ITEM: NUMBER OF ATOMS
7
ITEM: BOX BOUNDS ff ff pp
-6.0000000000000000e+00 6.0000000000000000e+00
-6.0000000000000000e+00 6.0000000000000000e+00
-6.0000000000000000e+00 6.0000000000000000e+00
ITEM: ATOMS id type xs ys zs
1 2 0.499811 0.500407 0.5
2 1 0.583789 0.500375 0.5
3 1 0.52629 0.560574 0.5
4 1 0.455621 0.516412 0.5
5 1 0.450481 0.433238 0.5
6 1 0.577236 0.502675 0.5
7 1 0.514669 0.519782 0.5
ITEM: TIMESTEP
140
ITEM: NUMBER OF ATOMS
7
ITEM: BOX BOUNDS ff ff pp
-6.0000000000000000e+00 6.0000000000000000e+00
-6.0000000000000000e+00 6.0000000000000000e+00
-6.0000000000000000e+00 6.0000000000000000e+00
ITEM: ATOMS id type xs ys zs
1 2 0.49981 0.500408 0.5
2 1 0.583789 0.500374 0.5
3 1 0.526289 0.560574 0.5
4 1 0.45562 0.516413 0.5
5 1 0.450482 0.433238 0.5
6 1 0.577235 0.502675 0.5
7 1 0.514673 0.519781 0.5
ITEM: TIMESTEP
150
ITEM: NUMBER OF ATOMS
7
ITEM: BOX BOUNDS ff ff pp
-6.0000000000000000e+00 6.0000000000000000e+00
-6.0000000000000000e+00 6.0000000000000000e+00
-6.0000000000000000e+00 6.0000000000000000e+00
ITEM: ATOMS id type xs ys zs
1 2 0.499809 0.50041 0.5
2 1 0.583788 0.500374 0.5
3 1 0.526288 0.560573 0.5
4 1 0.455619 0.516413 0.5
5 1 0.450483 0.433239 0.5
6 1 0.577234 0.502675 0.5
7 1 0.514676 0.51978 0.5
ITEM: TIMESTEP
160
ITEM: NUMBER OF ATOMS
7
ITEM: BOX BOUNDS ff ff pp
-6.0000000000000000e+00 6.0000000000000000e+00
-6.0000000000000000e+00 6.0000000000000000e+00
-6.0000000000000000e+00 6.0000000000000000e+00
ITEM: ATOMS id type xs ys zs
1 2 0.499808 0.500412 0.5
2 1 0.583787 0.500374 0.5
3 1 0.526287 0.560573 0.5
4 1 0.455618 0.516413 0.5
5 1 0.450484 0.433239 0.5
6 1 0.577233 0.502674 0.5
7 1 0.514679 0.519778 0.5
ITEM: TIMESTEP
170
ITEM: NUMBER OF ATOMS
7
ITEM: BOX BOUNDS ff ff pp
-6.0000000000000000e+00 6.0000000000000000e+00
-6.0000000000000000e+00 6.0000000000000000e+00
-6.0000000000000000e+00 6.0000000000000000e+00
ITEM: ATOMS id type xs ys zs
1 2 0.499807 0.500413 0.5
2 1 0.583786 0.500374 0.5
3 1 0.526287 0.560573 0.5
4 1 0.455617 0.516413 0.5
5 1 0.450485 0.433239 0.5
6 1 0.577233 0.502674 0.5
7 1 0.514682 0.519777 0.5
ITEM: TIMESTEP
180
ITEM: NUMBER OF ATOMS
7
ITEM: BOX BOUNDS ff ff pp
-6.0000000000000000e+00 6.0000000000000000e+00
-6.0000000000000000e+00 6.0000000000000000e+00
-6.0000000000000000e+00 6.0000000000000000e+00
ITEM: ATOMS id type xs ys zs
1 2 0.499806 0.500415 0.5
2 1 0.583785 0.500373 0.5
3 1 0.526286 0.560573 0.5
4 1 0.455616 0.516413 0.5
5 1 0.450486 0.433239 0.5
6 1 0.577232 0.502674 0.5
7 1 0.514685 0.519776 0.5
ITEM: TIMESTEP
190
ITEM: NUMBER OF ATOMS
7
ITEM: BOX BOUNDS ff ff pp
-6.0000000000000000e+00 6.0000000000000000e+00
-6.0000000000000000e+00 6.0000000000000000e+00
-6.0000000000000000e+00 6.0000000000000000e+00
ITEM: ATOMS id type xs ys zs
1 2 0.499805 0.500416 0.5
2 1 0.583784 0.500373 0.5
3 1 0.526285 0.560573 0.5
4 1 0.455615 0.516414 0.5
5 1 0.450488 0.433239 0.5
6 1 0.577231 0.502674 0.5
7 1 0.514688 0.519775 0.5
ITEM: TIMESTEP
200
ITEM: NUMBER OF ATOMS
7
ITEM: BOX BOUNDS ff ff pp
-6.0000000000000000e+00 6.0000000000000000e+00
-6.0000000000000000e+00 6.0000000000000000e+00
-6.0000000000000000e+00 6.0000000000000000e+00
ITEM: ATOMS id type xs ys zs
1 2 0.499804 0.500418 0.5
2 1 0.583783 0.500373 0.5
3 1 0.526285 0.560573 0.5
4 1 0.455615 0.516414 0.5
5 1 0.450489 0.433239 0.5
6 1 0.57723 0.502673 0.5
7 1 0.514691 0.519773 0.5
ITEM: TIMESTEP
210
ITEM: NUMBER OF ATOMS
7
ITEM: BOX BOUNDS ff ff pp
-6.0000000000000000e+00 6.0000000000000000e+00
-6.0000000000000000e+00 6.0000000000000000e+00
-6.0000000000000000e+00 6.0000000000000000e+00
ITEM: ATOMS id type xs ys zs
1 2 0.499804 0.500419 0.5
2 1 0.583783 0.500372 0.5
3 1 0.526284 0.560573 0.5
4 1 0.455614 0.516414 0.5
5 1 0.45049 0.433239 0.5
6 1 0.577229 0.502673 0.5
7 1 0.514693 0.519773 0.5
ITEM: TIMESTEP
220
ITEM: NUMBER OF ATOMS
7
ITEM: BOX BOUNDS ff ff pp
-6.0000000000000000e+00 6.0000000000000000e+00
-6.0000000000000000e+00 6.0000000000000000e+00
-6.0000000000000000e+00 6.0000000000000000e+00
ITEM: ATOMS id type xs ys zs
1 2 0.499803 0.500421 0.5
2 1 0.583782 0.500372 0.5
3 1 0.526284 0.560573 0.5
4 1 0.455613 0.516414 0.5
5 1 0.450491 0.433239 0.5
6 1 0.577228 0.502673 0.5
7 1 0.514696 0.519772 0.5
ITEM: TIMESTEP
230
ITEM: NUMBER OF ATOMS
7
ITEM: BOX BOUNDS ff ff pp
-6.0000000000000000e+00 6.0000000000000000e+00
-6.0000000000000000e+00 6.0000000000000000e+00
-6.0000000000000000e+00 6.0000000000000000e+00
ITEM: ATOMS id type xs ys zs
1 2 0.499802 0.500422 0.5
2 1 0.583781 0.500372 0.5
3 1 0.526283 0.560573 0.5
4 1 0.455613 0.516414 0.5
5 1 0.450492 0.433239 0.5
6 1 0.577228 0.502673 0.5
7 1 0.514698 0.519771 0.5
ITEM: TIMESTEP
240
ITEM: NUMBER OF ATOMS
7
ITEM: BOX BOUNDS ff ff pp
-6.0000000000000000e+00 6.0000000000000000e+00
-6.0000000000000000e+00 6.0000000000000000e+00
-6.0000000000000000e+00 6.0000000000000000e+00
ITEM: ATOMS id type xs ys zs
1 2 0.499801 0.500424 0.5
2 1 0.58378 0.500371 0.5
3 1 0.526282 0.560572 0.5
4 1 0.455612 0.516415 0.5
5 1 0.450494 0.433239 0.5
6 1 0.577227 0.502672 0.5
7 1 0.514702 0.519769 0.5
ITEM: TIMESTEP
250
ITEM: NUMBER OF ATOMS
7
ITEM: BOX BOUNDS ff ff pp
-6.0000000000000000e+00 6.0000000000000000e+00
-6.0000000000000000e+00 6.0000000000000000e+00
-6.0000000000000000e+00 6.0000000000000000e+00
ITEM: ATOMS id type xs ys zs
1 2 0.4998 0.500426 0.5
2 1 0.583779 0.500371 0.5
3 1 0.526282 0.560572 0.5
4 1 0.455611 0.516415 0.5
5 1 0.450495 0.433239 0.5
6 1 0.577226 0.502672 0.5
7 1 0.514705 0.519768 0.5
ITEM: TIMESTEP
260
ITEM: NUMBER OF ATOMS
7
ITEM: BOX BOUNDS ff ff pp
-6.0000000000000000e+00 6.0000000000000000e+00
-6.0000000000000000e+00 6.0000000000000000e+00
-6.0000000000000000e+00 6.0000000000000000e+00
ITEM: ATOMS id type xs ys zs
1 2 0.4998 0.500427 0.5
2 1 0.583778 0.500371 0.5
3 1 0.526281 0.560572 0.5
4 1 0.45561 0.516415 0.5
5 1 0.450496 0.433239 0.5
6 1 0.577225 0.502672 0.5
7 1 0.514706 0.519768 0.5
ITEM: TIMESTEP
270
ITEM: NUMBER OF ATOMS
7
ITEM: BOX BOUNDS ff ff pp
-6.0000000000000000e+00 6.0000000000000000e+00
-6.0000000000000000e+00 6.0000000000000000e+00
-6.0000000000000000e+00 6.0000000000000000e+00
ITEM: ATOMS id type xs ys zs
1 2 0.499799 0.500428 0.5
2 1 0.583777 0.50037 0.5
3 1 0.526281 0.560572 0.5
4 1 0.45561 0.516415 0.5
5 1 0.450497 0.433239 0.5
6 1 0.577224 0.502672 0.5
7 1 0.514709 0.519766 0.5
ITEM: TIMESTEP
280
ITEM: NUMBER OF ATOMS
7
ITEM: BOX BOUNDS ff ff pp
-6.0000000000000000e+00 6.0000000000000000e+00
-6.0000000000000000e+00 6.0000000000000000e+00
-6.0000000000000000e+00 6.0000000000000000e+00
ITEM: ATOMS id type xs ys zs
1 2 0.499798 0.50043 0.5
2 1 0.583777 0.50037 0.5
3 1 0.52628 0.560572 0.5
4 1 0.455609 0.516415 0.5
5 1 0.450498 0.433239 0.5
6 1 0.577224 0.502671 0.5
7 1 0.514711 0.519766 0.5
ITEM: TIMESTEP
290
ITEM: NUMBER OF ATOMS
7
ITEM: BOX BOUNDS ff ff pp
-6.0000000000000000e+00 6.0000000000000000e+00
-6.0000000000000000e+00 6.0000000000000000e+00
-6.0000000000000000e+00 6.0000000000000000e+00
ITEM: ATOMS id type xs ys zs
1 2 0.499797 0.500432 0.5
2 1 0.583776 0.50037 0.5
3 1 0.526279 0.560572 0.5
4 1 0.455608 0.516415 0.5
5 1 0.4505 0.433239 0.5
6 1 0.577223 0.502671 0.5
7 1 0.514715 0.519764 0.5
ITEM: TIMESTEP
300
ITEM: NUMBER OF ATOMS
7
ITEM: BOX BOUNDS ff ff pp
-6.0000000000000000e+00 6.0000000000000000e+00
-6.0000000000000000e+00 6.0000000000000000e+00
-6.0000000000000000e+00 6.0000000000000000e+00
ITEM: ATOMS id type xs ys zs
1 2 0.499796 0.500434 0.5
2 1 0.583775 0.500369 0.5
3 1 0.526279 0.560572 0.5
4 1 0.455607 0.516416 0.5
5 1 0.450501 0.433239 0.5
6 1 0.577222 0.502671 0.5
7 1 0.514718 0.519763 0.5
ITEM: TIMESTEP
310
ITEM: NUMBER OF ATOMS
7
ITEM: BOX BOUNDS ff ff pp
-6.0000000000000000e+00 6.0000000000000000e+00
-6.0000000000000000e+00 6.0000000000000000e+00
-6.0000000000000000e+00 6.0000000000000000e+00
ITEM: ATOMS id type xs ys zs
1 2 0.499795 0.500436 0.5
2 1 0.583774 0.500369 0.5
3 1 0.526278 0.560572 0.5
4 1 0.455606 0.516416 0.5
5 1 0.450502 0.43324 0.5
6 1 0.577221 0.50267 0.5
7 1 0.514721 0.519762 0.5
ITEM: TIMESTEP
320
ITEM: NUMBER OF ATOMS
7
ITEM: BOX BOUNDS ff ff pp
-6.0000000000000000e+00 6.0000000000000000e+00
-6.0000000000000000e+00 6.0000000000000000e+00
-6.0000000000000000e+00 6.0000000000000000e+00
ITEM: ATOMS id type xs ys zs
1 2 0.499794 0.500438 0.5
2 1 0.583772 0.500368 0.5
3 1 0.526277 0.560572 0.5
4 1 0.455605 0.516416 0.5
5 1 0.450504 0.43324 0.5
6 1 0.57722 0.50267 0.5
7 1 0.514725 0.51976 0.5
ITEM: TIMESTEP
330
ITEM: NUMBER OF ATOMS
7
ITEM: BOX BOUNDS ff ff pp
-6.0000000000000000e+00 6.0000000000000000e+00
-6.0000000000000000e+00 6.0000000000000000e+00
-6.0000000000000000e+00 6.0000000000000000e+00
ITEM: ATOMS id type xs ys zs
1 2 0.499793 0.500439 0.5
2 1 0.583772 0.500368 0.5
3 1 0.526277 0.560571 0.5
4 1 0.455604 0.516416 0.5
5 1 0.450505 0.43324 0.5
6 1 0.577219 0.50267 0.5
7 1 0.514727 0.519759 0.5
ITEM: TIMESTEP
340
ITEM: NUMBER OF ATOMS
7
ITEM: BOX BOUNDS ff ff pp
-6.0000000000000000e+00 6.0000000000000000e+00
-6.0000000000000000e+00 6.0000000000000000e+00
-6.0000000000000000e+00 6.0000000000000000e+00
ITEM: ATOMS id type xs ys zs
1 2 0.499792 0.500441 0.5
2 1 0.583771 0.500368 0.5
3 1 0.526276 0.560571 0.5
4 1 0.455604 0.516416 0.5
5 1 0.450506 0.43324 0.5
6 1 0.577218 0.502669 0.5
7 1 0.51473 0.519758 0.5
ITEM: TIMESTEP
350
ITEM: NUMBER OF ATOMS
7
ITEM: BOX BOUNDS ff ff pp
-6.0000000000000000e+00 6.0000000000000000e+00
-6.0000000000000000e+00 6.0000000000000000e+00
-6.0000000000000000e+00 6.0000000000000000e+00
ITEM: ATOMS id type xs ys zs
1 2 0.499791 0.500442 0.5
2 1 0.58377 0.500367 0.5
3 1 0.526275 0.560571 0.5
4 1 0.455603 0.516416 0.5
5 1 0.450508 0.43324 0.5
6 1 0.577217 0.502669 0.5
7 1 0.514733 0.519757 0.5
ITEM: TIMESTEP
360
ITEM: NUMBER OF ATOMS
7
ITEM: BOX BOUNDS ff ff pp
-6.0000000000000000e+00 6.0000000000000000e+00
-6.0000000000000000e+00 6.0000000000000000e+00
-6.0000000000000000e+00 6.0000000000000000e+00
ITEM: ATOMS id type xs ys zs
1 2 0.49979 0.500444 0.5
2 1 0.583769 0.500367 0.5
3 1 0.526275 0.560571 0.5
4 1 0.455602 0.516417 0.5
5 1 0.450509 0.43324 0.5
6 1 0.577216 0.502669 0.5
7 1 0.514736 0.519756 0.5
ITEM: TIMESTEP
370
ITEM: NUMBER OF ATOMS
7
ITEM: BOX BOUNDS ff ff pp
-6.0000000000000000e+00 6.0000000000000000e+00
-6.0000000000000000e+00 6.0000000000000000e+00
-6.0000000000000000e+00 6.0000000000000000e+00
ITEM: ATOMS id type xs ys zs
1 2 0.499789 0.500447 0.5
2 1 0.583768 0.500366 0.5
3 1 0.526274 0.560571 0.5
4 1 0.455601 0.516417 0.5
5 1 0.450511 0.43324 0.5
6 1 0.577215 0.502668 0.5
7 1 0.51474 0.519755 0.5
ITEM: TIMESTEP
380
ITEM: NUMBER OF ATOMS
7
ITEM: BOX BOUNDS ff ff pp
-6.0000000000000000e+00 6.0000000000000000e+00
-6.0000000000000000e+00 6.0000000000000000e+00
-6.0000000000000000e+00 6.0000000000000000e+00
ITEM: ATOMS id type xs ys zs
1 2 0.499788 0.500448 0.5
2 1 0.583767 0.500366 0.5
3 1 0.526273 0.560571 0.5
4 1 0.4556 0.516417 0.5
5 1 0.450512 0.43324 0.5
6 1 0.577214 0.502668 0.5
7 1 0.514743 0.519753 0.5
ITEM: TIMESTEP
390
ITEM: NUMBER OF ATOMS
7
ITEM: BOX BOUNDS ff ff pp
-6.0000000000000000e+00 6.0000000000000000e+00
-6.0000000000000000e+00 6.0000000000000000e+00
-6.0000000000000000e+00 6.0000000000000000e+00
ITEM: ATOMS id type xs ys zs
1 2 0.499787 0.50045 0.5
2 1 0.583766 0.500365 0.5
3 1 0.526273 0.560571 0.5
4 1 0.455599 0.516417 0.5
5 1 0.450514 0.43324 0.5
6 1 0.577213 0.502668 0.5
7 1 0.514746 0.519752 0.5
ITEM: TIMESTEP
400
ITEM: NUMBER OF ATOMS
7
ITEM: BOX BOUNDS ff ff pp
-6.0000000000000000e+00 6.0000000000000000e+00
-6.0000000000000000e+00 6.0000000000000000e+00
-6.0000000000000000e+00 6.0000000000000000e+00
ITEM: ATOMS id type xs ys zs
1 2 0.499786 0.500452 0.5
2 1 0.583765 0.500365 0.5
3 1 0.526272 0.560571 0.5
4 1 0.455598 0.516417 0.5
5 1 0.450515 0.43324 0.5
6 1 0.577212 0.502667 0.5
7 1 0.514749 0.519751 0.5
ITEM: TIMESTEP
410
ITEM: NUMBER OF ATOMS
7
ITEM: BOX BOUNDS ff ff pp
-6.0000000000000000e+00 6.0000000000000000e+00
-6.0000000000000000e+00 6.0000000000000000e+00
-6.0000000000000000e+00 6.0000000000000000e+00
ITEM: ATOMS id type xs ys zs
1 2 0.499785 0.500454 0.5
2 1 0.583764 0.500365 0.5
3 1 0.526271 0.56057 0.5
4 1 0.455597 0.516418 0.5
5 1 0.450516 0.43324 0.5
6 1 0.577211 0.502667 0.5
7 1 0.514752 0.51975 0.5
ITEM: TIMESTEP
420
ITEM: NUMBER OF ATOMS
7
ITEM: BOX BOUNDS ff ff pp
-6.0000000000000000e+00 6.0000000000000000e+00
-6.0000000000000000e+00 6.0000000000000000e+00
-6.0000000000000000e+00 6.0000000000000000e+00
ITEM: ATOMS id type xs ys zs
1 2 0.499784 0.500456 0.5
2 1 0.583763 0.500364 0.5
3 1 0.52627 0.56057 0.5
4 1 0.455596 0.516418 0.5
5 1 0.450518 0.43324 0.5
6 1 0.57721 0.502667 0.5
7 1 0.514756 0.519748 0.5
ITEM: TIMESTEP
430
ITEM: NUMBER OF ATOMS
7
ITEM: BOX BOUNDS ff ff pp
-6.0000000000000000e+00 6.0000000000000000e+00
-6.0000000000000000e+00 6.0000000000000000e+00
-6.0000000000000000e+00 6.0000000000000000e+00
ITEM: ATOMS id type xs ys zs
1 2 0.499783 0.500458 0.5
2 1 0.583761 0.500364 0.5
3 1 0.52627 0.56057 0.5
4 1 0.455595 0.516418 0.5
5 1 0.45052 0.43324 0.5
6 1 0.577209 0.502666 0.5
7 1 0.514759 0.519747 0.5
ITEM: TIMESTEP
440
ITEM: NUMBER OF ATOMS
7
ITEM: BOX BOUNDS ff ff pp
-6.0000000000000000e+00 6.0000000000000000e+00
-6.0000000000000000e+00 6.0000000000000000e+00
-6.0000000000000000e+00 6.0000000000000000e+00
ITEM: ATOMS id type xs ys zs
1 2 0.499782 0.500459 0.5
2 1 0.583761 0.500363 0.5
3 1 0.526269 0.56057 0.5
4 1 0.455594 0.516418 0.5
5 1 0.450521 0.43324 0.5
6 1 0.577208 0.502666 0.5
7 1 0.514762 0.519746 0.5
ITEM: TIMESTEP
450
ITEM: NUMBER OF ATOMS
7
ITEM: BOX BOUNDS ff ff pp
-6.0000000000000000e+00 6.0000000000000000e+00
-6.0000000000000000e+00 6.0000000000000000e+00
-6.0000000000000000e+00 6.0000000000000000e+00
ITEM: ATOMS id type xs ys zs
1 2 0.499781 0.500461 0.5
2 1 0.58376 0.500363 0.5
3 1 0.526268 0.56057 0.5
4 1 0.455594 0.516418 0.5
5 1 0.450522 0.43324 0.5
6 1 0.577208 0.502666 0.5
7 1 0.514764 0.519745 0.5
ITEM: TIMESTEP
460
ITEM: NUMBER OF ATOMS
7
ITEM: BOX BOUNDS ff ff pp
-6.0000000000000000e+00 6.0000000000000000e+00
-6.0000000000000000e+00 6.0000000000000000e+00
-6.0000000000000000e+00 6.0000000000000000e+00
ITEM: ATOMS id type xs ys zs
1 2 0.49978 0.500463 0.5
2 1 0.583759 0.500362 0.5
3 1 0.526268 0.56057 0.5
4 1 0.455593 0.516419 0.5
5 1 0.450524 0.43324 0.5
6 1 0.577206 0.502665 0.5
7 1 0.514768 0.519744 0.5
ITEM: TIMESTEP
470
ITEM: NUMBER OF ATOMS
7
ITEM: BOX BOUNDS ff ff pp
-6.0000000000000000e+00 6.0000000000000000e+00
-6.0000000000000000e+00 6.0000000000000000e+00
-6.0000000000000000e+00 6.0000000000000000e+00
ITEM: ATOMS id type xs ys zs
1 2 0.499779 0.500465 0.5
2 1 0.583758 0.500362 0.5
3 1 0.526267 0.56057 0.5
4 1 0.455592 0.516419 0.5
5 1 0.450525 0.43324 0.5
6 1 0.577206 0.502665 0.5
7 1 0.514771 0.519743 0.5
ITEM: TIMESTEP
480
ITEM: NUMBER OF ATOMS
7
ITEM: BOX BOUNDS ff ff pp
-6.0000000000000000e+00 6.0000000000000000e+00
-6.0000000000000000e+00 6.0000000000000000e+00
-6.0000000000000000e+00 6.0000000000000000e+00
ITEM: ATOMS id type xs ys zs
1 2 0.499778 0.500466 0.5
2 1 0.583757 0.500362 0.5
3 1 0.526266 0.56057 0.5
4 1 0.455591 0.516419 0.5
5 1 0.450526 0.43324 0.5
6 1 0.577205 0.502665 0.5
7 1 0.514773 0.519742 0.5
ITEM: TIMESTEP
490
ITEM: NUMBER OF ATOMS
7
ITEM: BOX BOUNDS ff ff pp
-6.0000000000000000e+00 6.0000000000000000e+00
-6.0000000000000000e+00 6.0000000000000000e+00
-6.0000000000000000e+00 6.0000000000000000e+00
ITEM: ATOMS id type xs ys zs
1 2 0.499777 0.500468 0.5
2 1 0.583756 0.500361 0.5
3 1 0.526266 0.56057 0.5
4 1 0.45559 0.516419 0.5
5 1 0.450528 0.43324 0.5
6 1 0.577204 0.502664 0.5
7 1 0.514776 0.519741 0.5
ITEM: TIMESTEP
500
ITEM: NUMBER OF ATOMS
7
ITEM: BOX BOUNDS ff ff pp
-6.0000000000000000e+00 6.0000000000000000e+00
-6.0000000000000000e+00 6.0000000000000000e+00
-6.0000000000000000e+00 6.0000000000000000e+00
ITEM: ATOMS id type xs ys zs
1 2 0.499776 0.500469 0.5
2 1 0.583755 0.500361 0.5
3 1 0.526265 0.560569 0.5
4 1 0.45559 0.516419 0.5
5 1 0.450529 0.43324 0.5
6 1 0.577203 0.502664 0.5
7 1 0.514779 0.51974 0.5
ITEM: TIMESTEP
510
ITEM: NUMBER OF ATOMS
7
ITEM: BOX BOUNDS ff ff pp
-6.0000000000000000e+00 6.0000000000000000e+00
-6.0000000000000000e+00 6.0000000000000000e+00
-6.0000000000000000e+00 6.0000000000000000e+00
ITEM: ATOMS id type xs ys zs
1 2 0.499775 0.500471 0.5
2 1 0.583754 0.500361 0.5
3 1 0.526265 0.560569 0.5
4 1 0.455589 0.516419 0.5
5 1 0.45053 0.433241 0.5
6 1 0.577202 0.502664 0.5
7 1 0.514781 0.519739 0.5
ITEM: TIMESTEP
520
ITEM: NUMBER OF ATOMS
7
ITEM: BOX BOUNDS ff ff pp
-6.0000000000000000e+00 6.0000000000000000e+00
-6.0000000000000000e+00 6.0000000000000000e+00
-6.0000000000000000e+00 6.0000000000000000e+00
ITEM: ATOMS id type xs ys zs
1 2 0.499775 0.500473 0.5
2 1 0.583753 0.50036 0.5
3 1 0.526264 0.560569 0.5
4 1 0.455588 0.51642 0.5
5 1 0.450531 0.433241 0.5
6 1 0.577202 0.502663 0.5
7 1 0.514784 0.519738 0.5
ITEM: TIMESTEP
530
ITEM: NUMBER OF ATOMS
7
ITEM: BOX BOUNDS ff ff pp
-6.0000000000000000e+00 6.0000000000000000e+00
-6.0000000000000000e+00 6.0000000000000000e+00
-6.0000000000000000e+00 6.0000000000000000e+00
ITEM: ATOMS id type xs ys zs
1 2 0.499774 0.500474 0.5
2 1 0.583753 0.50036 0.5
3 1 0.526263 0.560569 0.5
4 1 0.455587 0.51642 0.5
5 1 0.450532 0.433241 0.5
6 1 0.577201 0.502663 0.5
7 1 0.514787 0.519737 0.5
ITEM: TIMESTEP
540
ITEM: NUMBER OF ATOMS
7
ITEM: BOX BOUNDS ff ff pp
-6.0000000000000000e+00 6.0000000000000000e+00
-6.0000000000000000e+00 6.0000000000000000e+00
-6.0000000000000000e+00 6.0000000000000000e+00
ITEM: ATOMS id type xs ys zs
1 2 0.499773 0.500476 0.5
2 1 0.583751 0.500359 0.5
3 1 0.526263 0.560569 0.5
4 1 0.455586 0.51642 0.5
5 1 0.450534 0.433241 0.5
6 1 0.5772 0.502663 0.5
7 1 0.51479 0.519735 0.5
ITEM: TIMESTEP
550
ITEM: NUMBER OF ATOMS
7
ITEM: BOX BOUNDS ff ff pp
-6.0000000000000000e+00 6.0000000000000000e+00
-6.0000000000000000e+00 6.0000000000000000e+00
-6.0000000000000000e+00 6.0000000000000000e+00
ITEM: ATOMS id type xs ys zs
1 2 0.499772 0.500478 0.5
2 1 0.58375 0.500359 0.5
3 1 0.526262 0.560569 0.5
4 1 0.455585 0.51642 0.5
5 1 0.450536 0.433241 0.5
6 1 0.577199 0.502662 0.5
7 1 0.514794 0.519734 0.5
ITEM: TIMESTEP
560
ITEM: NUMBER OF ATOMS
7
ITEM: BOX BOUNDS ff ff pp
-6.0000000000000000e+00 6.0000000000000000e+00
-6.0000000000000000e+00 6.0000000000000000e+00
-6.0000000000000000e+00 6.0000000000000000e+00
ITEM: ATOMS id type xs ys zs
1 2 0.499771 0.50048 0.5
2 1 0.583749 0.500359 0.5
3 1 0.526261 0.560569 0.5
4 1 0.455584 0.51642 0.5
5 1 0.450537 0.433241 0.5
6 1 0.577198 0.502662 0.5
7 1 0.514797 0.519733 0.5
ITEM: TIMESTEP
570
ITEM: NUMBER OF ATOMS
7
ITEM: BOX BOUNDS ff ff pp
-6.0000000000000000e+00 6.0000000000000000e+00
-6.0000000000000000e+00 6.0000000000000000e+00
-6.0000000000000000e+00 6.0000000000000000e+00
ITEM: ATOMS id type xs ys zs
1 2 0.49977 0.500482 0.5
2 1 0.583748 0.500358 0.5
3 1 0.52626 0.560569 0.5
4 1 0.455584 0.516421 0.5
5 1 0.450538 0.433241 0.5
6 1 0.577197 0.502662 0.5
7 1 0.5148 0.519732 0.5
ITEM: TIMESTEP
580
ITEM: NUMBER OF ATOMS
7
ITEM: BOX BOUNDS ff ff pp
-6.0000000000000000e+00 6.0000000000000000e+00
-6.0000000000000000e+00 6.0000000000000000e+00
-6.0000000000000000e+00 6.0000000000000000e+00
ITEM: ATOMS id type xs ys zs
1 2 0.499768 0.500484 0.5
2 1 0.583747 0.500358 0.5
3 1 0.52626 0.560568 0.5
4 1 0.455582 0.516421 0.5
5 1 0.45054 0.433241 0.5
6 1 0.577196 0.502661 0.5
7 1 0.514804 0.51973 0.5
ITEM: TIMESTEP
590
ITEM: NUMBER OF ATOMS
7
ITEM: BOX BOUNDS ff ff pp
-6.0000000000000000e+00 6.0000000000000000e+00
-6.0000000000000000e+00 6.0000000000000000e+00
-6.0000000000000000e+00 6.0000000000000000e+00
ITEM: ATOMS id type xs ys zs
1 2 0.499767 0.500486 0.5
2 1 0.583746 0.500357 0.5
3 1 0.526259 0.560568 0.5
4 1 0.455581 0.516421 0.5
5 1 0.450542 0.433241 0.5
6 1 0.577195 0.502661 0.5
7 1 0.514807 0.519729 0.5
ITEM: TIMESTEP
600
ITEM: NUMBER OF ATOMS
7
ITEM: BOX BOUNDS ff ff pp
-6.0000000000000000e+00 6.0000000000000000e+00
-6.0000000000000000e+00 6.0000000000000000e+00
-6.0000000000000000e+00 6.0000000000000000e+00
ITEM: ATOMS id type xs ys zs
1 2 0.499767 0.500487 0.5
2 1 0.583745 0.500357 0.5
3 1 0.526258 0.560568 0.5
4 1 0.455581 0.516421 0.5
5 1 0.450543 0.433241 0.5
6 1 0.577194 0.502661 0.5
7 1 0.514809 0.519728 0.5
ITEM: TIMESTEP
610
ITEM: NUMBER OF ATOMS
7
ITEM: BOX BOUNDS ff ff pp
-6.0000000000000000e+00 6.0000000000000000e+00
-6.0000000000000000e+00 6.0000000000000000e+00
-6.0000000000000000e+00 6.0000000000000000e+00
ITEM: ATOMS id type xs ys zs
1 2 0.499766 0.500488 0.5
2 1 0.583745 0.500357 0.5
3 1 0.526258 0.560568 0.5
4 1 0.45558 0.516421 0.5
5 1 0.450544 0.433241 0.5
6 1 0.577193 0.502661 0.5
7 1 0.514811 0.519727 0.5
ITEM: TIMESTEP
620
ITEM: NUMBER OF ATOMS
7
ITEM: BOX BOUNDS ff ff pp
-6.0000000000000000e+00 6.0000000000000000e+00
-6.0000000000000000e+00 6.0000000000000000e+00
-6.0000000000000000e+00 6.0000000000000000e+00
ITEM: ATOMS id type xs ys zs
1 2 0.499765 0.50049 0.5
2 1 0.583744 0.500356 0.5
3 1 0.526258 0.560568 0.5
4 1 0.45558 0.516421 0.5
5 1 0.450545 0.433241 0.5
6 1 0.577193 0.50266 0.5
7 1 0.514813 0.519726 0.5
ITEM: TIMESTEP
630
ITEM: NUMBER OF ATOMS
7
ITEM: BOX BOUNDS ff ff pp
-6.0000000000000000e+00 6.0000000000000000e+00
-6.0000000000000000e+00 6.0000000000000000e+00
-6.0000000000000000e+00 6.0000000000000000e+00
ITEM: ATOMS id type xs ys zs
1 2 0.499765 0.500491 0.5
2 1 0.583744 0.500356 0.5
3 1 0.526257 0.560568 0.5
4 1 0.455579 0.516422 0.5
5 1 0.450545 0.433241 0.5
6 1 0.577192 0.50266 0.5
7 1 0.514815 0.519726 0.5
ITEM: TIMESTEP
640
ITEM: NUMBER OF ATOMS
7
ITEM: BOX BOUNDS ff ff pp
-6.0000000000000000e+00 6.0000000000000000e+00
-6.0000000000000000e+00 6.0000000000000000e+00
-6.0000000000000000e+00 6.0000000000000000e+00
ITEM: ATOMS id type xs ys zs
1 2 0.499764 0.500492 0.5
2 1 0.583743 0.500356 0.5
3 1 0.526257 0.560568 0.5
4 1 0.455579 0.516422 0.5
5 1 0.450546 0.433241 0.5
6 1 0.577192 0.50266 0.5
7 1 0.514817 0.519725 0.5
ITEM: TIMESTEP
650
ITEM: NUMBER OF ATOMS
7
ITEM: BOX BOUNDS ff ff pp
-6.0000000000000000e+00 6.0000000000000000e+00
-6.0000000000000000e+00 6.0000000000000000e+00
-6.0000000000000000e+00 6.0000000000000000e+00
ITEM: ATOMS id type xs ys zs
1 2 0.499763 0.500494 0.5
2 1 0.583742 0.500355 0.5
3 1 0.526256 0.560568 0.5
4 1 0.455578 0.516422 0.5
5 1 0.450548 0.433241 0.5
6 1 0.577191 0.50266 0.5
7 1 0.51482 0.519724 0.5
ITEM: TIMESTEP
660
ITEM: NUMBER OF ATOMS
7
ITEM: BOX BOUNDS ff ff pp
-6.0000000000000000e+00 6.0000000000000000e+00
-6.0000000000000000e+00 6.0000000000000000e+00
-6.0000000000000000e+00 6.0000000000000000e+00
ITEM: ATOMS id type xs ys zs
1 2 0.499762 0.500495 0.5
2 1 0.583741 0.500355 0.5
3 1 0.526255 0.560568 0.5
4 1 0.455577 0.516422 0.5
5 1 0.450549 0.433241 0.5
6 1 0.57719 0.502659 0.5
7 1 0.514822 0.519723 0.5
ITEM: TIMESTEP
670
ITEM: NUMBER OF ATOMS
7
ITEM: BOX BOUNDS ff ff pp
-6.0000000000000000e+00 6.0000000000000000e+00
-6.0000000000000000e+00 6.0000000000000000e+00
-6.0000000000000000e+00 6.0000000000000000e+00
ITEM: ATOMS id type xs ys zs
1 2 0.499761 0.500497 0.5
2 1 0.58374 0.500355 0.5
3 1 0.526255 0.560568 0.5
4 1 0.455576 0.516422 0.5
5 1 0.45055 0.433241 0.5
6 1 0.577189 0.502659 0.5
7 1 0.514825 0.519722 0.5
ITEM: TIMESTEP
680
ITEM: NUMBER OF ATOMS
7
ITEM: BOX BOUNDS ff ff pp
-6.0000000000000000e+00 6.0000000000000000e+00
-6.0000000000000000e+00 6.0000000000000000e+00
-6.0000000000000000e+00 6.0000000000000000e+00
ITEM: ATOMS id type xs ys zs
1 2 0.499761 0.500498 0.5
2 1 0.583739 0.500354 0.5
3 1 0.526254 0.560567 0.5
4 1 0.455576 0.516422 0.5
5 1 0.450551 0.433241 0.5
6 1 0.577188 0.502659 0.5
7 1 0.514827 0.519721 0.5
ITEM: TIMESTEP
690
ITEM: NUMBER OF ATOMS
7
ITEM: BOX BOUNDS ff ff pp
-6.0000000000000000e+00 6.0000000000000000e+00
-6.0000000000000000e+00 6.0000000000000000e+00
-6.0000000000000000e+00 6.0000000000000000e+00
ITEM: ATOMS id type xs ys zs
1 2 0.49976 0.5005 0.5
2 1 0.583738 0.500354 0.5
3 1 0.526254 0.560567 0.5
4 1 0.455575 0.516423 0.5
5 1 0.450553 0.433241 0.5
6 1 0.577187 0.502658 0.5
7 1 0.514831 0.51972 0.5
ITEM: TIMESTEP
700
ITEM: NUMBER OF ATOMS
7
ITEM: BOX BOUNDS ff ff pp
-6.0000000000000000e+00 6.0000000000000000e+00
-6.0000000000000000e+00 6.0000000000000000e+00
-6.0000000000000000e+00 6.0000000000000000e+00
ITEM: ATOMS id type xs ys zs
1 2 0.499759 0.500502 0.5
2 1 0.583737 0.500353 0.5
3 1 0.526253 0.560567 0.5
4 1 0.455574 0.516423 0.5
5 1 0.450554 0.433241 0.5
6 1 0.577186 0.502658 0.5
7 1 0.514834 0.519718 0.5
ITEM: TIMESTEP
710
ITEM: NUMBER OF ATOMS
7
ITEM: BOX BOUNDS ff ff pp
-6.0000000000000000e+00 6.0000000000000000e+00
-6.0000000000000000e+00 6.0000000000000000e+00
-6.0000000000000000e+00 6.0000000000000000e+00
ITEM: ATOMS id type xs ys zs