ITEM: TIMESTEP
0
ITEM: NUMBER OF ATOMS
7
ITEM: BOX BOUNDS ff ff pp
-6.0000000000000000e+00 6.0000000000000000e+00
-6.0000000000000000e+00 6.0000000000000000e+00
-6.0000000000000000e+00 6.0000000000000000e+00
ITEM: ATOMS id type xs ys zs
1 2 0.502376 0.500922 0.5
2 1 0.580808 0.5 0.5
3 1 0.527998 0.558889 0.5
4 1 0.459845 0.513501 0.5
5 1 0.456552 0.434811 0.5
6 1 0.575131 0.502985 0.5
7 1 0.515564 0.519468 0.5
ITEM: TIMESTEP
10
ITEM: NUMBER OF ATOMS
7
ITEM: BOX BOUNDS ff ff pp
-6.0000000000000000e+00 6.0000000000000000e+00
-6.0000000000000000e+00 6.0000000000000000e+00
-6.0000000000000000e+00 6.0000000000000000e+00
ITEM: ATOMS id type xs ys zs
1 2 0.500942 0.503243 0.5
2 1 0.584241 0.497692 0.5
3 1 0.528533 0.560463 0.5
4 1 0.458566 0.51344 0.5
5 1 0.46113 0.429614 0.5
6 1 0.579434 0.502326 0.5
7 1 0.518024 0.520294 0.5
ITEM: TIMESTEP
20
ITEM: NUMBER OF ATOMS
7
ITEM: BOX BOUNDS ff ff pp
-6.0000000000000000e+00 6.0000000000000000e+00
-6.0000000000000000e+00 6.0000000000000000e+00
-6.0000000000000000e+00 6.0000000000000000e+00
ITEM: ATOMS id type xs ys zs
1 2 0.501454 0.503614 0.5
2 1 0.584538 0.497361 0.5
3 1 0.528973 0.560285 0.5
4 1 0.459139 0.512751 0.5
5 1 0.463787 0.428904 0.5
6 1 0.579885 0.502263 0.5
7 1 0.519005 0.52025 0.5
ITEM: TIMESTEP
30
ITEM: NUMBER OF ATOMS
7
ITEM: BOX BOUNDS ff ff pp
-6.0000000000000000e+00 6.0000000000000000e+00
-6.0000000000000000e+00 6.0000000000000000e+00
-6.0000000000000000e+00 6.0000000000000000e+00
ITEM: ATOMS id type xs ys zs
1 2 0.501714 0.503569 0.5
2 1 0.584865 0.497518 0.5
3 1 0.529019 0.560192 0.5
4 1 0.459248 0.512547 0.5
5 1 0.464434 0.428693 0.5
6 1 0.580058 0.502253 0.5
7 1 0.519505 0.520083 0.5
ITEM: TIMESTEP
40
ITEM: NUMBER OF ATOMS
7
ITEM: BOX BOUNDS ff ff pp
-6.0000000000000000e+00 6.0000000000000000e+00
-6.0000000000000000e+00 6.0000000000000000e+00
-6.0000000000000000e+00 6.0000000000000000e+00
ITEM: ATOMS id type xs ys zs
1 2 0.502504 0.504167 0.5
2 1 0.58538 0.496907 0.5
3 1 0.529834 0.560031 0.5
4 1 0.460496 0.511104 0.5
5 1 0.469442 0.427332 0.5
6 1 0.581044 0.502052 0.5
7 1 0.521033 0.520232 0.5
ITEM: TIMESTEP
50
ITEM: NUMBER OF ATOMS
7
ITEM: BOX BOUNDS ff ff pp
-6.0000000000000000e+00 6.0000000000000000e+00
-6.0000000000000000e+00 6.0000000000000000e+00
-6.0000000000000000e+00 6.0000000000000000e+00
ITEM: ATOMS id type xs ys zs
1 2 0.504211 0.504958 0.5
2 1 0.58657 0.495713 0.5
3 1 0.531636 0.559662 0.5
4 1 0.463156 0.508174 0.5
5 1 0.479474 0.424943 0.5
6 1 0.583122 0.501528 0.5
7 1 0.522252 0.521093 0.5
ITEM: TIMESTEP
60
ITEM: NUMBER OF ATOMS
7
ITEM: BOX BOUNDS ff ff pp
-6.0000000000000000e+00 6.0000000000000000e+00
-6.0000000000000000e+00 6.0000000000000000e+00
-6.0000000000000000e+00 6.0000000000000000e+00
ITEM: ATOMS id type xs ys zs
1 2 0.507129 0.505315 0.5
2 1 0.588989 0.494125 0.5
3 1 0.534688 0.558589 0.5
4 1 0.467058 0.504506 0.5
5 1 0.491993 0.422751 0.5
6 1 0.586403 0.500489 0.5
7 1 0.518771 0.523448 0.5
ITEM: TIMESTEP
70
ITEM: NUMBER OF ATOMS
7
ITEM: BOX BOUNDS ff ff pp
-6.0000000000000000e+00 6.0000000000000000e+00
-6.0000000000000000e+00 6.0000000000000000e+00
-6.0000000000000000e+00 6.0000000000000000e+00
ITEM: ATOMS id type xs ys zs
1 2 0.510775 0.505341 0.5
2 1 0.592345 0.492529 0.5
3 1 0.537835 0.556273 0.5
4 1 0.471033 0.501149 0.5
5 1 0.503275 0.421842 0.5
6 1 0.590228 0.499221 0.5
7 1 0.511581 0.526735 0.5
ITEM: TIMESTEP
80
ITEM: NUMBER OF ATOMS
7
ITEM: BOX BOUNDS ff ff pp
-6.0000000000000000e+00 6.0000000000000000e+00
-6.0000000000000000e+00 6.0000000000000000e+00
-6.0000000000000000e+00 6.0000000000000000e+00
ITEM: ATOMS id type xs ys zs
1 2 0.515175 0.505844 0.5
2 1 0.596626 0.491046 0.5
3 1 0.539605 0.552174 0.5
4 1 0.47418 0.497895 0.5
5 1 0.513381 0.422805 0.5
6 1 0.59422 0.497735 0.5
7 1 0.504111 0.529966 0.5
ITEM: TIMESTEP
90
ITEM: NUMBER OF ATOMS
7
ITEM: BOX BOUNDS ff ff pp
-6.0000000000000000e+00 6.0000000000000000e+00
-6.0000000000000000e+00 6.0000000000000000e+00
-6.0000000000000000e+00 6.0000000000000000e+00
ITEM: ATOMS id type xs ys zs
1 2 0.518152 0.507484 0.5
2 1 0.599641 0.490578 0.5
3 1 0.539546 0.548795 0.5
4 1 0.474502 0.495918 0.5
5 1 0.518299 0.424459 0.5
6 1 0.595939 0.496526 0.5
7 1 0.501153 0.530942 0.5
ITEM: TIMESTEP
100
ITEM: NUMBER OF ATOMS
7
ITEM: BOX BOUNDS ff ff pp
-6.0000000000000000e+00 6.0000000000000000e+00
-6.0000000000000000e+00 6.0000000000000000e+00
-6.0000000000000000e+00 6.0000000000000000e+00
ITEM: ATOMS id type xs ys zs
1 2 0.518924 0.508093 0.5
2 1 0.600576 0.490759 0.5
3 1 0.539463 0.547882 0.5
4 1 0.474299 0.495468 0.5
5 1 0.519141 0.424857 0.5
6 1 0.596154 0.496057 0.5
7 1 0.50058 0.531056 0.5
ITEM: TIMESTEP
110
ITEM: NUMBER OF ATOMS
7
ITEM: BOX BOUNDS ff ff pp
-6.0000000000000000e+00 6.0000000000000000e+00
-6.0000000000000000e+00 6.0000000000000000e+00
-6.0000000000000000e+00 6.0000000000000000e+00
ITEM: ATOMS id type xs ys zs
1 2 0.520282 0.509325 0.5
2 1 0.601797 0.490341 0.5
3 1 0.539568 0.5462 0.5
4 1 0.474563 0.493986 0.5
5 1 0.523114 0.426124 0.5
6 1 0.596755 0.494932 0.5
7 1 0.499764 0.531398 0.5
ITEM: TIMESTEP
120
ITEM: NUMBER OF ATOMS
7
ITEM: BOX BOUNDS ff ff pp
-6.0000000000000000e+00 6.0000000000000000e+00
-6.0000000000000000e+00 6.0000000000000000e+00
-6.0000000000000000e+00 6.0000000000000000e+00
ITEM: ATOMS id type xs ys zs
1 2 0.520861 0.509963 0.5
2 1 0.602367 0.490286 0.5
3 1 0.539622 0.545469 0.5
4 1 0.474614 0.493271 0.5
5 1 0.524932 0.426735 0.5
6 1 0.59689 0.494246 0.5
7 1 0.499552 0.531501 0.5
ITEM: TIMESTEP
130
ITEM: NUMBER OF ATOMS
7
ITEM: BOX BOUNDS ff ff pp
-6.0000000000000000e+00 6.0000000000000000e+00
-6.0000000000000000e+00 6.0000000000000000e+00
-6.0000000000000000e+00 6.0000000000000000e+00
ITEM: ATOMS id type xs ys zs
1 2 0.521028 0.510097 0.5
2 1 0.602631 0.490488 0.5
3 1 0.539606 0.545266 0.5
4 1 0.474545 0.493127 0.5
5 1 0.52515 0.426882 0.5
6 1 0.596859 0.493963 0.5
7 1 0.499503 0.531515 0.5
ITEM: TIMESTEP
140
ITEM: NUMBER OF ATOMS
7
ITEM: BOX BOUNDS ff ff pp
-6.0000000000000000e+00 6.0000000000000000e+00
-6.0000000000000000e+00 6.0000000000000000e+00
-6.0000000000000000e+00 6.0000000000000000e+00
ITEM: ATOMS id type xs ys zs
1 2 0.520547 0.50942 0.5
2 1 0.602529 0.491243 0.5
3 1 0.539464 0.545898 0.5
4 1 0.4742 0.494006 0.5
5 1 0.522578 0.426139 0.5
6 1 0.596532 0.494324 0.5
7 1 0.499658 0.531369 0.5
ITEM: TIMESTEP
150
ITEM: NUMBER OF ATOMS
7
ITEM: BOX BOUNDS ff ff pp
-6.0000000000000000e+00 6.0000000000000000e+00
-6.0000000000000000e+00 6.0000000000000000e+00
-6.0000000000000000e+00 6.0000000000000000e+00
ITEM: ATOMS id type xs ys zs
1 2 0.519521 0.508089 0.5
2 1 0.602061 0.492487 0.5
3 1 0.539156 0.547246 0.5
4 1 0.473547 0.495745 0.5
5 1 0.517266 0.424784 0.5
6 1 0.59588 0.495225 0.5
7 1 0.500043 0.531059 0.5
ITEM: TIMESTEP
160
ITEM: NUMBER OF ATOMS
7
ITEM: BOX BOUNDS ff ff pp
-6.0000000000000000e+00 6.0000000000000000e+00
-6.0000000000000000e+00 6.0000000000000000e+00
-6.0000000000000000e+00 6.0000000000000000e+00
ITEM: ATOMS id type xs ys zs
1 2 0.519234 0.507648 0.5
2 1 0.601959 0.492914 0.5
3 1 0.539049 0.547628 0.5
4 1 0.473346 0.4963 0.5
5 1 0.515515 0.4244 0.5
6 1 0.595687 0.495467 0.5
7 1 0.500061 0.531007 0.5
ITEM: TIMESTEP
170
ITEM: NUMBER OF ATOMS
7
ITEM: BOX BOUNDS ff ff pp
-6.0000000000000000e+00 6.0000000000000000e+00
-6.0000000000000000e+00 6.0000000000000000e+00
-6.0000000000000000e+00 6.0000000000000000e+00
ITEM: ATOMS id type xs ys zs
1 2 0.519061 0.5074 0.5
2 1 0.601882 0.493156 0.5
3 1 0.538979 0.547856 0.5
4 1 0.473213 0.496623 0.5
5 1 0.514458 0.424191 0.5
6 1 0.595565 0.49562 0.5
7 1 0.500103 0.53096 0.5
ITEM: TIMESTEP
180
ITEM: NUMBER OF ATOMS
7
ITEM: BOX BOUNDS ff ff pp
-6.0000000000000000e+00 6.0000000000000000e+00
-6.0000000000000000e+00 6.0000000000000000e+00
-6.0000000000000000e+00 6.0000000000000000e+00
ITEM: ATOMS id type xs ys zs
1 2 0.519118 0.507435 0.5
2 1 0.601947 0.493173 0.5
3 1 0.538984 0.547785 0.5
4 1 0.473226 0.496577 0.5
5 1 0.514594 0.424228 0.5
6 1 0.595592 0.495552 0.5
7 1 0.50004 0.530988 0.5
ITEM: TIMESTEP
190
ITEM: NUMBER OF ATOMS
7
ITEM: BOX BOUNDS ff ff pp
-6.0000000000000000e+00 6.0000000000000000e+00
-6.0000000000000000e+00 6.0000000000000000e+00
-6.0000000000000000e+00 6.0000000000000000e+00
ITEM: ATOMS id type xs ys zs
1 2 0.519021 0.5073 0.5
2 1 0.601901 0.493312 0.5
3 1 0.53894 0.547911 0.5
4 1 0.473139 0.496759 0.5
5 1 0.513988 0.424124 0.5
6 1 0.595515 0.49563 0.5
7 1 0.500074 0.53096 0.5
ITEM: TIMESTEP
200
ITEM: NUMBER OF ATOMS
7
ITEM: BOX BOUNDS ff ff pp
-6.0000000000000000e+00 6.0000000000000000e+00
-6.0000000000000000e+00 6.0000000000000000e+00
-6.0000000000000000e+00 6.0000000000000000e+00
ITEM: ATOMS id type xs ys zs
1 2 0.518926 0.507173 0.5
2 1 0.601853 0.493429 0.5
3 1 0.538906 0.548032 0.5
4 1 0.473074 0.496929 0.5
5 1 0.513439 0.424022 0.5
6 1 0.595449 0.495706 0.5
7 1 0.50009 0.530939 0.5
ITEM: TIMESTEP
210
ITEM: NUMBER OF ATOMS
7
ITEM: BOX BOUNDS ff ff pp
-6.0000000000000000e+00 6.0000000000000000e+00
-6.0000000000000000e+00 6.0000000000000000e+00
-6.0000000000000000e+00 6.0000000000000000e+00
ITEM: ATOMS id type xs ys zs
1 2 0.518912 0.507154 0.5
2 1 0.601848 0.493451 0.5
3 1 0.538901 0.548049 0.5
4 1 0.473062 0.496956 0.5
5 1 0.513352 0.424004 0.5
6 1 0.595439 0.495715 0.5
7 1 0.500089 0.530938 0.5
ITEM: TIMESTEP
220
ITEM: NUMBER OF ATOMS
7
ITEM: BOX BOUNDS ff ff pp
-6.0000000000000000e+00 6.0000000000000000e+00
-6.0000000000000000e+00 6.0000000000000000e+00
-6.0000000000000000e+00 6.0000000000000000e+00
ITEM: ATOMS id type xs ys zs
1 2 0.519019 0.50728 0.5
2 1 0.601919 0.493362 0.5
3 1 0.538933 0.547914 0.5
4 1 0.473125 0.496788 0.5
5 1 0.513892 0.424109 0.5
6 1 0.595507 0.495614 0.5
7 1 0.500051 0.530966 0.5
ITEM: TIMESTEP
230
ITEM: NUMBER OF ATOMS
7
ITEM: BOX BOUNDS ff ff pp
-6.0000000000000000e+00 6.0000000000000000e+00
-6.0000000000000000e+00 6.0000000000000000e+00
-6.0000000000000000e+00 6.0000000000000000e+00
ITEM: ATOMS id type xs ys zs
1 2 0.518841 0.507048 0.5
2 1 0.60181 0.493551 0.5
3 1 0.538867 0.548145 0.5
4 1 0.473003 0.497086 0.5
5 1 0.5129 0.42393 0.5
6 1 0.595386 0.495785 0.5
7 1 0.50012 0.53091 0.5
ITEM: TIMESTEP
240
ITEM: NUMBER OF ATOMS
7
ITEM: BOX BOUNDS ff ff pp
-6.0000000000000000e+00 6.0000000000000000e+00
-6.0000000000000000e+00 6.0000000000000000e+00
-6.0000000000000000e+00 6.0000000000000000e+00
ITEM: ATOMS id type xs ys zs
1 2 0.518667 0.506813 0.5
2 1 0.601704 0.493738 0.5
3 1 0.538802 0.548376 0.5
4 1 0.472888 0.497378 0.5
5 1 0.511918 0.423754 0.5
6 1 0.595271 0.495958 0.5
7 1 0.500185 0.530854 0.5
ITEM: TIMESTEP
250
ITEM: NUMBER OF ATOMS
7
ITEM: BOX BOUNDS ff ff pp
-6.0000000000000000e+00 6.0000000000000000e+00
-6.0000000000000000e+00 6.0000000000000000e+00
-6.0000000000000000e+00 6.0000000000000000e+00
ITEM: ATOMS id type xs ys zs
1 2 0.518531 0.506627 0.5
2 1 0.601617 0.49388 0.5
3 1 0.538749 0.548555 0.5
4 1 0.472801 0.497604 0.5
5 1 0.511149 0.423628 0.5
6 1 0.59518 0.496092 0.5
7 1 0.500235 0.53081 0.5
ITEM: TIMESTEP
260
ITEM: NUMBER OF ATOMS
7
ITEM: BOX BOUNDS ff ff pp
-6.0000000000000000e+00 6.0000000000000000e+00
-6.0000000000000000e+00 6.0000000000000000e+00
-6.0000000000000000e+00 6.0000000000000000e+00
ITEM: ATOMS id type xs ys zs
1 2 0.518365 0.506427 0.5
2 1 0.601502 0.494031 0.5
3 1 0.538686 0.548763 0.5
4 1 0.47268 0.497877 0.5
5 1 0.510238 0.423492 0.5
6 1 0.595061 0.49624 0.5
7 1 0.500297 0.530766 0.5
ITEM: TIMESTEP
270
ITEM: NUMBER OF ATOMS
7
ITEM: BOX BOUNDS ff ff pp
-6.0000000000000000e+00 6.0000000000000000e+00
-6.0000000000000000e+00 6.0000000000000000e+00
-6.0000000000000000e+00 6.0000000000000000e+00
ITEM: ATOMS id type xs ys zs
1 2 0.518412 0.506487 0.5
2 1 0.601534 0.493975 0.5
3 1 0.538708 0.548698 0.5
4 1 0.472722 0.497802 0.5
5 1 0.510514 0.423536 0.5
6 1 0.595097 0.496188 0.5
7 1 0.500254 0.530794 0.5
ITEM: TIMESTEP
280
ITEM: NUMBER OF ATOMS
7
ITEM: BOX BOUNDS ff ff pp
-6.0000000000000000e+00 6.0000000000000000e+00
-6.0000000000000000e+00 6.0000000000000000e+00
-6.0000000000000000e+00 6.0000000000000000e+00
ITEM: ATOMS id type xs ys zs
1 2 0.518242 0.506266 0.5
2 1 0.601423 0.49415 0.5
3 1 0.538639 0.548919 0.5
4 1 0.472601 0.498083 0.5
5 1 0.509542 0.423385 0.5
6 1 0.594979 0.496357 0.5
7 1 0.500328 0.530735 0.5
ITEM: TIMESTEP
290
ITEM: NUMBER OF ATOMS
7
ITEM: BOX BOUNDS ff ff pp
-6.0000000000000000e+00 6.0000000000000000e+00
-6.0000000000000000e+00 6.0000000000000000e+00
-6.0000000000000000e+00 6.0000000000000000e+00
ITEM: ATOMS id type xs ys zs
1 2 0.518363 0.506447 0.5
2 1 0.601494 0.494 0.5
3 1 0.538689 0.548747 0.5
4 1 0.472679 0.497884 0.5
5 1 0.510265 0.423513 0.5
6 1 0.595057 0.496214 0.5
7 1 0.500258 0.530797 0.5
ITEM: TIMESTEP
300
ITEM: NUMBER OF ATOMS
7
ITEM: BOX BOUNDS ff ff pp
-6.0000000000000000e+00 6.0000000000000000e+00
-6.0000000000000000e+00 6.0000000000000000e+00
-6.0000000000000000e+00 6.0000000000000000e+00
ITEM: ATOMS id type xs ys zs
1 2 0.518276 0.506304 0.5
2 1 0.601446 0.494121 0.5
3 1 0.53865 0.548875 0.5
4 1 0.472622 0.498032 0.5
5 1 0.509711 0.423414 0.5
6 1 0.595002 0.496328 0.5
7 1 0.500311 0.530746 0.5
ITEM: TIMESTEP
310
ITEM: NUMBER OF ATOMS
7
ITEM: BOX BOUNDS ff ff pp
-6.0000000000000000e+00 6.0000000000000000e+00
-6.0000000000000000e+00 6.0000000000000000e+00
-6.0000000000000000e+00 6.0000000000000000e+00
ITEM: ATOMS id type xs ys zs
1 2 0.518294 0.506341 0.5
2 1 0.601458 0.494087 0.5
3 1 0.538664 0.548845 0.5
4 1 0.472642 0.497999 0.5
5 1 0.509859 0.423432 0.5
6 1 0.595017 0.496295 0.5
7 1 0.500286 0.530766 0.5
ITEM: TIMESTEP
320
ITEM: NUMBER OF ATOMS
7
ITEM: BOX BOUNDS ff ff pp
-6.0000000000000000e+00 6.0000000000000000e+00
-6.0000000000000000e+00 6.0000000000000000e+00
-6.0000000000000000e+00 6.0000000000000000e+00
ITEM: ATOMS id type xs ys zs
1 2 0.5183 0.506351 0.5
2 1 0.60146 0.494081 0.5
3 1 0.538664 0.548836 0.5
4 1 0.472642 0.497989 0.5
5 1 0.509887 0.423441 0.5
6 1 0.595019 0.496289 0.5
7 1 0.500287 0.530767 0.5
ITEM: TIMESTEP
330
ITEM: NUMBER OF ATOMS
7
ITEM: BOX BOUNDS ff ff pp
-6.0000000000000000e+00 6.0000000000000000e+00
-6.0000000000000000e+00 6.0000000000000000e+00
-6.0000000000000000e+00 6.0000000000000000e+00
ITEM: ATOMS id type xs ys zs
1 2 0.518348 0.506436 0.5
2 1 0.601487 0.494009 0.5
3 1 0.538688 0.548762 0.5
4 1 0.472674 0.497905 0.5
5 1 0.510209 0.423497 0.5
6 1 0.595049 0.496222 0.5
7 1 0.500256 0.530797 0.5
ITEM: TIMESTEP
340
ITEM: NUMBER OF ATOMS
7
ITEM: BOX BOUNDS ff ff pp
-6.0000000000000000e+00 6.0000000000000000e+00
-6.0000000000000000e+00 6.0000000000000000e+00
-6.0000000000000000e+00 6.0000000000000000e+00
ITEM: ATOMS id type xs ys zs
1 2 0.518405 0.506532 0.5
2 1 0.601517 0.493929 0.5
3 1 0.538711 0.548676 0.5
4 1 0.472706 0.497807 0.5
5 1 0.510568 0.423567 0.5
6 1 0.595082 0.496148 0.5
7 1 0.500228 0.530827 0.5
ITEM: TIMESTEP
350
ITEM: NUMBER OF ATOMS
7
ITEM: BOX BOUNDS ff ff pp
-6.0000000000000000e+00 6.0000000000000000e+00
-6.0000000000000000e+00 6.0000000000000000e+00
-6.0000000000000000e+00 6.0000000000000000e+00
ITEM: ATOMS id type xs ys zs
1 2 0.51847 0.506637 0.5
2 1 0.601555 0.493845 0.5
3 1 0.538741 0.548583 0.5
4 1 0.47275 0.497696 0.5
5 1 0.510976 0.423635 0.5
6 1 0.595123 0.496068 0.5
7 1 0.500195 0.530859 0.5
ITEM: TIMESTEP
360
ITEM: NUMBER OF ATOMS
7
ITEM: BOX BOUNDS ff ff pp
-6.0000000000000000e+00 6.0000000000000000e+00
-6.0000000000000000e+00 6.0000000000000000e+00
-6.0000000000000000e+00 6.0000000000000000e+00
ITEM: ATOMS id type xs ys zs
1 2 0.518753 0.506908 0.5
2 1 0.60177 0.493664 0.5
3 1 0.538842 0.548273 0.5
4 1 0.472972 0.497229 0.5
5 1 0.512412 0.423809 0.5
6 1 0.595345 0.495892 0.5
7 1 0.500151 0.530871 0.5
ITEM: TIMESTEP
370
ITEM: NUMBER OF ATOMS
7
ITEM: BOX BOUNDS ff ff pp
-6.0000000000000000e+00 6.0000000000000000e+00
-6.0000000000000000e+00 6.0000000000000000e+00
-6.0000000000000000e+00 6.0000000000000000e+00
ITEM: ATOMS id type xs ys zs
1 2 0.518886 0.507016 0.5
2 1 0.60187 0.493596 0.5
3 1 0.53888 0.548136 0.5
4 1 0.473062 0.497022 0.5
5 1 0.513015 0.423891 0.5
6 1 0.595444 0.495822 0.5
7 1 0.500138 0.53087 0.5
ITEM: TIMESTEP
380
ITEM: NUMBER OF ATOMS
7
ITEM: BOX BOUNDS ff ff pp
-6.0000000000000000e+00 6.0000000000000000e+00
-6.0000000000000000e+00 6.0000000000000000e+00
-6.0000000000000000e+00 6.0000000000000000e+00
ITEM: ATOMS id type xs ys zs
1 2 0.518803 0.506893 0.5
2 1 0.601822 0.493701 0.5
3 1 0.538844 0.548251 0.5
4 1 0.473002 0.497168 0.5
5 1 0.512504 0.4238 0.5
6 1 0.595389 0.495915 0.5
7 1 0.500171 0.530838 0.5
ITEM: TIMESTEP
390
ITEM: NUMBER OF ATOMS
7
ITEM: BOX BOUNDS ff ff pp
-6.0000000000000000e+00 6.0000000000000000e+00
-6.0000000000000000e+00 6.0000000000000000e+00
-6.0000000000000000e+00 6.0000000000000000e+00
ITEM: ATOMS id type xs ys zs
1 2 0.518773 0.506849 0.5
2 1 0.601807 0.493736 0.5
3 1 0.538835 0.548292 0.5
4 1 0.472988 0.497218 0.5
5 1 0.512342 0.423764 0.5
6 1 0.595371 0.495945 0.5
7 1 0.50018 0.530827 0.5
ITEM: TIMESTEP
400
ITEM: NUMBER OF ATOMS
7
ITEM: BOX BOUNDS ff ff pp
-6.0000000000000000e+00 6.0000000000000000e+00
-6.0000000000000000e+00 6.0000000000000000e+00
-6.0000000000000000e+00 6.0000000000000000e+00
ITEM: ATOMS id type xs ys zs
1 2 0.518668 0.506685 0.5
2 1 0.601747 0.493873 0.5
3 1 0.538789 0.548443 0.5
4 1 0.472918 0.497398 0.5
5 1 0.511694 0.423643 0.5
6 1 0.595305 0.496073 0.5
7 1 0.500234 0.530777 0.5
ITEM: TIMESTEP
410
ITEM: NUMBER OF ATOMS
7
ITEM: BOX BOUNDS ff ff pp
-6.0000000000000000e+00 6.0000000000000000e+00
-6.0000000000000000e+00 6.0000000000000000e+00
-6.0000000000000000e+00 6.0000000000000000e+00
ITEM: ATOMS id type xs ys zs
1 2 0.518712 0.506761 0.5
2 1 0.601773 0.493805 0.5
3 1 0.538814 0.548375 0.5
4 1 0.472956 0.497318 0.5
5 1 0.512006 0.423695 0.5
6 1 0.595336 0.49601 0.5
7 1 0.500201 0.530806 0.5
ITEM: TIMESTEP
420
ITEM: NUMBER OF ATOMS
7
ITEM: BOX BOUNDS ff ff pp
-6.0000000000000000e+00 6.0000000000000000e+00
-6.0000000000000000e+00 6.0000000000000000e+00
-6.0000000000000000e+00 6.0000000000000000e+00
ITEM: ATOMS id type xs ys zs
1 2 0.518733 0.50679 0.5
2 1 0.601782 0.493782 0.5
3 1 0.538818 0.548348 0.5
4 1 0.472962 0.497284 0.5
5 1 0.512108 0.423723 0.5
6 1 0.595346 0.495991 0.5
7 1 0.500199 0.530811 0.5
ITEM: TIMESTEP
430
ITEM: NUMBER OF ATOMS
7
ITEM: BOX BOUNDS ff ff pp
-6.0000000000000000e+00 6.0000000000000000e+00
-6.0000000000000000e+00 6.0000000000000000e+00
-6.0000000000000000e+00 6.0000000000000000e+00
ITEM: ATOMS id type xs ys zs
1 2 0.518716 0.506765 0.5
2 1 0.601773 0.493803 0.5
3 1 0.538812 0.548371 0.5
4 1 0.472953 0.497312 0.5
5 1 0.512012 0.423703 0.5
6 1 0.595336 0.496009 0.5
7 1 0.500205 0.530804 0.5
ITEM: TIMESTEP
440
ITEM: NUMBER OF ATOMS
7
ITEM: BOX BOUNDS ff ff pp
-6.0000000000000000e+00 6.0000000000000000e+00
-6.0000000000000000e+00 6.0000000000000000e+00
-6.0000000000000000e+00 6.0000000000000000e+00
ITEM: ATOMS id type xs ys zs
1 2 0.51868 0.506708 0.5
2 1 0.601753 0.493849 0.5
3 1 0.538797 0.548423 0.5
4 1 0.47293 0.497374 0.5
5 1 0.511793 0.423661 0.5
6 1 0.595314 0.496053 0.5
7 1 0.500222 0.530787 0.5
ITEM: TIMESTEP
450
ITEM: NUMBER OF ATOMS
7
ITEM: BOX BOUNDS ff ff pp
-6.0000000000000000e+00 6.0000000000000000e+00
-6.0000000000000000e+00 6.0000000000000000e+00
-6.0000000000000000e+00 6.0000000000000000e+00
ITEM: ATOMS id type xs ys zs
1 2 0.518682 0.506714 0.5
2 1 0.601755 0.493844 0.5
3 1 0.5388 0.548419 0.5
4 1 0.472935 0.49737 0.5
5 1 0.511817 0.42366 0.5
6 1 0.595316 0.496048 0.5
7 1 0.500217 0.530791 0.5
ITEM: TIMESTEP
460
ITEM: NUMBER OF ATOMS
7
ITEM: BOX BOUNDS ff ff pp
-6.0000000000000000e+00 6.0000000000000000e+00
-6.0000000000000000e+00 6.0000000000000000e+00
-6.0000000000000000e+00 6.0000000000000000e+00
ITEM: ATOMS id type xs ys zs
1 2 0.518755 0.506831 0.5
2 1 0.601795 0.493746 0.5
3 1 0.538831 0.548313 0.5
4 1 0.472981 0.497243 0.5
5 1 0.512271 0.423748 0.5
6 1 0.595361 0.495958 0.5
7 1 0.500182 0.530826 0.5
ITEM: TIMESTEP
470
ITEM: NUMBER OF ATOMS
7
ITEM: BOX BOUNDS ff ff pp
-6.0000000000000000e+00 6.0000000000000000e+00
-6.0000000000000000e+00 6.0000000000000000e+00
-6.0000000000000000e+00 6.0000000000000000e+00
ITEM: ATOMS id type xs ys zs
1 2 0.518818 0.506932 0.5
2 1 0.60183 0.493663 0.5
3 1 0.538858 0.548221 0.5
4 1 0.473021 0.497134 0.5
5 1 0.512659 0.423822 0.5
6 1 0.5954 0.49588 0.5
7 1 0.500153 0.530856 0.5
ITEM: TIMESTEP
480
ITEM: NUMBER OF ATOMS
7
ITEM: BOX BOUNDS ff ff pp
-6.0000000000000000e+00 6.0000000000000000e+00
-6.0000000000000000e+00 6.0000000000000000e+00
-6.0000000000000000e+00 6.0000000000000000e+00
ITEM: ATOMS id type xs ys zs
1 2 0.518873 0.507005 0.5
2 1 0.601857 0.493602 0.5
3 1 0.538873 0.548149 0.5
4 1 0.47305 0.497043 0.5
5 1 0.512949 0.423895 0.5
6 1 0.59543 0.495823 0.5
7 1 0.500138 0.530871 0.5
ITEM: TIMESTEP
490
ITEM: NUMBER OF ATOMS
7
ITEM: BOX BOUNDS ff ff pp
-6.0000000000000000e+00 6.0000000000000000e+00
-6.0000000000000000e+00 6.0000000000000000e+00
-6.0000000000000000e+00 6.0000000000000000e+00
ITEM: ATOMS id type xs ys zs
1 2 0.518849 0.506973 0.5
2 1 0.601848 0.493631 0.5
3 1 0.538867 0.54818 0.5
4 1 0.473037 0.497084 0.5
5 1 0.51282 0.42386 0.5
6 1 0.595417 0.495848 0.5
7 1 0.500141 0.530865 0.5
ITEM: TIMESTEP
500
ITEM: NUMBER OF ATOMS
7
ITEM: BOX BOUNDS ff ff pp
-6.0000000000000000e+00 6.0000000000000000e+00
-6.0000000000000000e+00 6.0000000000000000e+00
-6.0000000000000000e+00 6.0000000000000000e+00
ITEM: ATOMS id type xs ys zs
1 2 0.518926 0.507104 0.5
2 1 0.601893 0.493525 0.5
3 1 0.538904 0.548065 0.5
4 1 0.47309 0.49695 0.5
5 1 0.513319 0.423943 0.5
6 1 0.595467 0.495748 0.5
7 1 0.5001 0.530906 0.5
ITEM: TIMESTEP
510
ITEM: NUMBER OF ATOMS
7
ITEM: BOX BOUNDS ff ff pp
-6.0000000000000000e+00 6.0000000000000000e+00
-6.0000000000000000e+00 6.0000000000000000e+00
-6.0000000000000000e+00 6.0000000000000000e+00
ITEM: ATOMS id type xs ys zs
1 2 0.519265 0.507534 0.5
2 1 0.602103 0.493195 0.5
3 1 0.539022 0.547633 0.5
4 1 0.473314 0.496378 0.5
5 1 0.515145 0.424292 0.5
6 1 0.595688 0.495432 0.5
7 1 0.500001 0.530986 0.5
ITEM: TIMESTEP
520
ITEM: NUMBER OF ATOMS
7
ITEM: BOX BOUNDS ff ff pp
-6.0000000000000000e+00 6.0000000000000000e+00
-6.0000000000000000e+00 6.0000000000000000e+00
-6.0000000000000000e+00 6.0000000000000000e+00
ITEM: ATOMS id type xs ys zs
1 2 0.519566 0.507914 0.5
2 1 0.602285 0.492901 0.5
3 1 0.539122 0.547248 0.5
4 1 0.473501 0.495877 0.5
5 1 0.51673 0.424621 0.5
6 1 0.595878 0.495147 0.5
7 1 0.499914 0.531059 0.5
ITEM: TIMESTEP
530
ITEM: NUMBER OF ATOMS
7
ITEM: BOX BOUNDS ff ff pp
-6.0000000000000000e+00 6.0000000000000000e+00
-6.0000000000000000e+00 6.0000000000000000e+00
-6.0000000000000000e+00 6.0000000000000000e+00
ITEM: ATOMS id type xs ys zs
1 2 0.519817 0.508247 0.5
2 1 0.602426 0.492634 0.5
3 1 0.539207 0.546919 0.5
4 1 0.473655 0.495455 0.5
5 1 0.518069 0.424923 0.5
6 1 0.596028 0.494892 0.5
7 1 0.499838 0.531129 0.5
ITEM: TIMESTEP
540
ITEM: NUMBER OF ATOMS
7
ITEM: BOX BOUNDS ff ff pp
-6.0000000000000000e+00 6.0000000000000000e+00
-6.0000000000000000e+00 6.0000000000000000e+00
-6.0000000000000000e+00 6.0000000000000000e+00
ITEM: ATOMS id type xs ys zs
1 2 0.51939 0.507667 0.5
2 1 0.602186 0.4931 0.5
3 1 0.539056 0.54748 0.5
4 1 0.47338 0.496186 0.5
5 1 0.515737 0.424418 0.5
6 1 0.595765 0.495329 0.5
7 1 0.499968 0.531008 0.5
ITEM: TIMESTEP
550
ITEM: NUMBER OF ATOMS
7
ITEM: BOX BOUNDS ff ff pp
-6.0000000000000000e+00 6.0000000000000000e+00
-6.0000000000000000e+00 6.0000000000000000e+00
-6.0000000000000000e+00 6.0000000000000000e+00
ITEM: ATOMS id type xs ys zs
1 2 0.519279 0.507527 0.5
2 1 0.602118 0.493211 0.5
3 1 0.539017 0.547625 0.5
4 1 0.47331 0.496368 0.5
5 1 0.515145 0.424298 0.5
6 1 0.595695 0.495436 0.5
7 1 0.500006 0.530978 0.5
ITEM: TIMESTEP
560
ITEM: NUMBER OF ATOMS
7
ITEM: BOX BOUNDS ff ff pp
-6.0000000000000000e+00 6.0000000000000000e+00
-6.0000000000000000e+00 6.0000000000000000e+00
-6.0000000000000000e+00 6.0000000000000000e+00
ITEM: ATOMS id type xs ys zs
1 2 0.519182 0.507393 0.5
2 1 0.60206 0.493319 0.5
3 1 0.53898 0.547755 0.5
4 1 0.473246 0.496532 0.5
5 1 0.514596 0.42419 0.5
6 1 0.595633 0.495538 0.5
7 1 0.500044 0.530945 0.5
ITEM: TIMESTEP
570
ITEM: NUMBER OF ATOMS
7
ITEM: BOX BOUNDS ff ff pp
-6.0000000000000000e+00 6.0000000000000000e+00
-6.0000000000000000e+00 6.0000000000000000e+00
-6.0000000000000000e+00 6.0000000000000000e+00
ITEM: ATOMS id type xs ys zs
1 2 0.519046 0.507218 0.5
2 1 0.601978 0.493455 0.5
3 1 0.538935 0.547931 0.5
4 1 0.473162 0.496759 0.5
5 1 0.513867 0.424043 0.5
6 1 0.595547 0.495668 0.5
7 1 0.500087 0.530909 0.5
ITEM: TIMESTEP
580
ITEM: NUMBER OF ATOMS
7
ITEM: BOX BOUNDS ff ff pp
-6.0000000000000000e+00 6.0000000000000000e+00
-6.0000000000000000e+00 6.0000000000000000e+00
-6.0000000000000000e+00 6.0000000000000000e+00
ITEM: ATOMS id type xs ys zs
1 2 0.519261 0.507531 0.5
2 1 0.602102 0.493194 0.5
3 1 0.539023 0.547633 0.5
4 1 0.473308 0.496392 0.5
5 1 0.515137 0.424293 0.5
6 1 0.595683 0.495421 0.5
7 1 0.49999 0.530997 0.5
ITEM: TIMESTEP
590
ITEM: NUMBER OF ATOMS
7
ITEM: BOX BOUNDS ff ff pp
-6.0000000000000000e+00 6.0000000000000000e+00
-6.0000000000000000e+00 6.0000000000000000e+00
-6.0000000000000000e+00 6.0000000000000000e+00
ITEM: ATOMS id type xs ys zs
1 2 0.519441 0.507785 0.5
2 1 0.602198 0.492987 0.5
3 1 0.539085 0.54739 0.5
4 1 0.473412 0.496087 0.5
5 1 0.516125 0.424517 0.5
6 1 0.595787 0.495229 0.5
7 1 0.499934 0.531054 0.5
ITEM: TIMESTEP
600
ITEM: NUMBER OF ATOMS
7
ITEM: BOX BOUNDS ff ff pp
-6.0000000000000000e+00 6.0000000000000000e+00
-6.0000000000000000e+00 6.0000000000000000e+00
-6.0000000000000000e+00 6.0000000000000000e+00
ITEM: ATOMS id type xs ys zs
1 2 0.519431 0.50776 0.5
2 1 0.602191 0.493011 0.5
3 1 0.539071 0.547408 0.5
4 1 0.473395 0.496109 0.5
5 1 0.516006 0.42451 0.5
6 1 0.595778 0.495253 0.5
7 1 0.499946 0.531043 0.5
ITEM: TIMESTEP
610
ITEM: NUMBER OF ATOMS
7
ITEM: BOX BOUNDS ff ff pp
-6.0000000000000000e+00 6.0000000000000000e+00
-6.0000000000000000e+00 6.0000000000000000e+00
-6.0000000000000000e+00 6.0000000000000000e+00
ITEM: ATOMS id type xs ys zs
1 2 0.519465 0.507807 0.5
2 1 0.60222 0.492981 0.5
3 1 0.539089 0.547362 0.5
4 1 0.473426 0.496052 0.5
5 1 0.516216 0.424527 0.5
6 1 0.595806 0.495219 0.5
7 1 0.499924 0.531055 0.5
ITEM: TIMESTEP
620
ITEM: NUMBER OF ATOMS
7
ITEM: BOX BOUNDS ff ff pp
-6.0000000000000000e+00 6.0000000000000000e+00
-6.0000000000000000e+00 6.0000000000000000e+00
-6.0000000000000000e+00 6.0000000000000000e+00
ITEM: ATOMS id type xs ys zs
1 2 0.51962 0.50793 0.5
2 1 0.602337 0.492909 0.5
3 1 0.53913 0.547198 0.5
4 1 0.473547 0.495789 0.5
5 1 0.516925 0.424647 0.5
6 1 0.595926 0.495145 0.5
7 1 0.49991 0.531038 0.5
ITEM: TIMESTEP
630
ITEM: NUMBER OF ATOMS
7
ITEM: BOX BOUNDS ff ff pp
-6.0000000000000000e+00 6.0000000000000000e+00
-6.0000000000000000e+00 6.0000000000000000e+00
-6.0000000000000000e+00 6.0000000000000000e+00
ITEM: ATOMS id type xs ys zs
1 2 0.520115 0.508055 0.5
2 1 0.602834 0.492996 0.5
3 1 0.539251 0.546806 0.5
4 1 0.474036 0.494975 0.5
5 1 0.518701 0.424772 0.5
6 1 0.596408 0.495174 0.5
7 1 0.499978 0.530784 0.5
ITEM: TIMESTEP
640
ITEM: NUMBER OF ATOMS
7
ITEM: BOX BOUNDS ff ff pp
-6.0000000000000000e+00 6.0000000000000000e+00
-6.0000000000000000e+00 6.0000000000000000e+00
-6.0000000000000000e+00 6.0000000000000000e+00
ITEM: ATOMS id type xs ys zs
1 2 0.52193 0.509056 0.5
2 1 0.604434 0.492611 0.5
3 1 0.53985 0.545185 0.5
4 1 0.475548 0.492234 0.5
5 1 0.525573 0.425607 0.5
6 1 0.597949 0.494615 0.5
7 1 0.500126 0.530336 0.5
ITEM: TIMESTEP
650
ITEM: NUMBER OF ATOMS
7
ITEM: BOX BOUNDS ff ff pp
-6.0000000000000000e+00 6.0000000000000000e+00
-6.0000000000000000e+00 6.0000000000000000e+00
-6.0000000000000000e+00 6.0000000000000000e+00
ITEM: ATOMS id type xs ys zs
1 2 0.524817 0.511237 0.5
2 1 0.606353 0.49066 0.5
3 1 0.540883 0.542246 0.5
4 1 0.478171 0.487072 0.5
5 1 0.538403 0.429059 0.5
6 1 0.600092 0.492943 0.5
7 1 0.500426 0.529824 0.5
ITEM: TIMESTEP
660
ITEM: NUMBER OF ATOMS
7
ITEM: BOX BOUNDS ff ff pp
-6.0000000000000000e+00 6.0000000000000000e+00
-6.0000000000000000e+00 6.0000000000000000e+00
-6.0000000000000000e+00 6.0000000000000000e+00
ITEM: ATOMS id type xs ys zs
1 2 0.525036 0.511338 0.5
2 1 0.606512 0.490633 0.5
3 1 0.540829 0.542008 0.5
4 1 0.478162 0.486961 0.5
5 1 0.538215 0.429099 0.5
6 1 0.600272 0.49308 0.5
7 1 0.500218 0.529896 0.5
ITEM: TIMESTEP
670
ITEM: NUMBER OF ATOMS
7
ITEM: BOX BOUNDS ff ff pp
-6.0000000000000000e+00 6.0000000000000000e+00
-6.0000000000000000e+00 6.0000000000000000e+00
-6.0000000000000000e+00 6.0000000000000000e+00
ITEM: ATOMS id type xs ys zs
1 2 0.52499 0.5113 0.5
2 1 0.606494 0.490727 0.5
3 1 0.540766 0.542047 0.5
4 1 0.478024 0.487158 0.5
5 1 0.537662 0.428964 0.5
6 1 0.60022 0.493145 0.5
7 1 0.500132 0.529937 0.5
ITEM: TIMESTEP
680
ITEM: NUMBER OF ATOMS
7
ITEM: BOX BOUNDS ff ff pp
-6.0000000000000000e+00 6.0000000000000000e+00
-6.0000000000000000e+00 6.0000000000000000e+00
-6.0000000000000000e+00 6.0000000000000000e+00
ITEM: ATOMS id type xs ys zs
1 2 0.524862 0.511221 0.5
2 1 0.606417 0.490828 0.5
3 1 0.540715 0.542169 0.5
4 1 0.477857 0.48744 0.5
5 1 0.537079 0.428789 0.5
6 1 0.600097 0.493164 0.5
7 1 0.500086 0.529997 0.5
ITEM: TIMESTEP
690
ITEM: NUMBER OF ATOMS
7
ITEM: BOX BOUNDS ff ff pp
-6.0000000000000000e+00 6.0000000000000000e+00
-6.0000000000000000e+00 6.0000000000000000e+00
-6.0000000000000000e+00 6.0000000000000000e+00
ITEM: ATOMS id type xs ys zs
1 2 0.524803 0.511202 0.5
2 1 0.606359 0.49079 0.5
3 1 0.540749 0.542247 0.5
4 1 0.477734 0.487687 0.5
5 1 0.536669 0.428713 0.5
6 1 0.600005 0.493056 0.5
7 1 0.500109 0.530104 0.5
ITEM: TIMESTEP
700
ITEM: NUMBER OF ATOMS
7
ITEM: BOX BOUNDS ff ff pp
-6.0000000000000000e+00 6.0000000000000000e+00
-6.0000000000000000e+00 6.0000000000000000e+00
-6.0000000000000000e+00 6.0000000000000000e+00
ITEM: ATOMS id type xs ys zs
1 2 0.524622 0.51115 0.5
2 1 0.606118 0.490475 0.5
3 1 0.540975 0.542497 0.5
4 1 0.477441 0.488548 0.5
5 1 0.535241 0.428498 0.5
6 1 0.599755 0.492731 0.5
7 1 0.50031 0.530445 0.5
ITEM: TIMESTEP
710
ITEM: NUMBER OF ATOMS
7
ITEM: BOX BOUNDS ff ff pp
-6.0000000000000000e+00 6.0000000000000000e+00
-6.0000000000000000e+00 6.0000000000000000e+00
-6.0000000000000000e+00 6.0000000000000000e+00