ITEM: TIMESTEP
0
ITEM: NUMBER OF ATOMS
7
ITEM: BOX BOUNDS ff ff pp
-6.0000000000000000e+00 6.0000000000000000e+00
-6.0000000000000000e+00 6.0000000000000000e+00
-6.0000000000000000e+00 6.0000000000000000e+00
ITEM: ATOMS id type xs ys zs
1 2 0.503167 0.50123 0.5
2 1 0.579966 0.5 0.5
3 1 0.528574 0.558276 0.5
4 1 0.461247 0.5125 0.5
5 1 0.458531 0.435308 0.5
6 1 0.574414 0.502979 0.5
7 1 0.515832 0.519322 0.5
ITEM: TIMESTEP
10
ITEM: NUMBER OF ATOMS
7
ITEM: BOX BOUNDS ff ff pp
-6.0000000000000000e+00 6.0000000000000000e+00
-6.0000000000000000e+00 6.0000000000000000e+00
-6.0000000000000000e+00 6.0000000000000000e+00
ITEM: ATOMS id type xs ys zs
1 2 0.501271 0.504084 0.5
2 1 0.584175 0.496787 0.5
3 1 0.529223 0.560439 0.5
4 1 0.459557 0.512434 0.5
5 1 0.464805 0.428554 0.5
6 1 0.580181 0.502197 0.5
7 1 0.519009 0.520533 0.5
ITEM: TIMESTEP
20
ITEM: NUMBER OF ATOMS
7
ITEM: BOX BOUNDS ff ff pp
-6.0000000000000000e+00 6.0000000000000000e+00
-6.0000000000000000e+00 6.0000000000000000e+00
-6.0000000000000000e+00 6.0000000000000000e+00
ITEM: ATOMS id type xs ys zs
1 2 0.501932 0.504473 0.5
2 1 0.584572 0.496409 0.5
3 1 0.529812 0.560226 0.5
4 1 0.460324 0.511495 0.5
5 1 0.468417 0.427674 0.5
6 1 0.580724 0.502036 0.5
7 1 0.520219 0.520551 0.5
ITEM: TIMESTEP
30
ITEM: NUMBER OF ATOMS
7
ITEM: BOX BOUNDS ff ff pp
-6.0000000000000000e+00 6.0000000000000000e+00
-6.0000000000000000e+00 6.0000000000000000e+00
-6.0000000000000000e+00 6.0000000000000000e+00
ITEM: ATOMS id type xs ys zs
1 2 0.502291 0.504372 0.5
2 1 0.585042 0.49662 0.5
3 1 0.529878 0.560106 0.5
4 1 0.460477 0.511205 0.5
5 1 0.469307 0.427393 0.5
6 1 0.580953 0.502029 0.5
7 1 0.520826 0.520365 0.5
ITEM: TIMESTEP
40
ITEM: NUMBER OF ATOMS
7
ITEM: BOX BOUNDS ff ff pp
-6.0000000000000000e+00 6.0000000000000000e+00
-6.0000000000000000e+00 6.0000000000000000e+00
-6.0000000000000000e+00 6.0000000000000000e+00
ITEM: ATOMS id type xs ys zs
1 2 0.503378 0.504961 0.5
2 1 0.585784 0.495876 0.5
3 1 0.530983 0.559878 0.5
4 1 0.462176 0.50923 0.5
5 1 0.476141 0.425756 0.5
6 1 0.58226 0.50167 0.5
7 1 0.522363 0.52074 0.5
ITEM: TIMESTEP
50
ITEM: NUMBER OF ATOMS
7
ITEM: BOX BOUNDS ff ff pp
-6.0000000000000000e+00 6.0000000000000000e+00
-6.0000000000000000e+00 6.0000000000000000e+00
-6.0000000000000000e+00 6.0000000000000000e+00
ITEM: ATOMS id type xs ys zs
1 2 0.505795 0.505647 0.5
2 1 0.587543 0.494207 0.5
3 1 0.533662 0.559161 0.5
4 1 0.465837 0.505408 0.5
5 1 0.489503 0.423325 0.5
6 1 0.585102 0.500645 0.5
7 1 0.52147 0.522532 0.5
ITEM: TIMESTEP
60
ITEM: NUMBER OF ATOMS
7
ITEM: BOX BOUNDS ff ff pp
-6.0000000000000000e+00 6.0000000000000000e+00
-6.0000000000000000e+00 6.0000000000000000e+00
-6.0000000000000000e+00 6.0000000000000000e+00
ITEM: ATOMS id type xs ys zs
1 2 0.509784 0.506036 0.5
2 1 0.590918 0.49177 0.5
3 1 0.537774 0.55674 0.5
4 1 0.470753 0.501041 0.5
5 1 0.505222 0.422237 0.5
6 1 0.589406 0.498708 0.5
7 1 0.513389 0.526511 0.5
ITEM: TIMESTEP
70
ITEM: NUMBER OF ATOMS
7
ITEM: BOX BOUNDS ff ff pp
-6.0000000000000000e+00 6.0000000000000000e+00
-6.0000000000000000e+00 6.0000000000000000e+00
-6.0000000000000000e+00 6.0000000000000000e+00
ITEM: ATOMS id type xs ys zs
1 2 0.514852 0.506721 0.5
2 1 0.595502 0.489179 0.5
3 1 0.540435 0.551849 0.5
4 1 0.475213 0.496561 0.5
5 1 0.520121 0.424019 0.5
6 1 0.59429 0.496399 0.5
7 1 0.503987 0.530759 0.5
ITEM: TIMESTEP
80
ITEM: NUMBER OF ATOMS
7
ITEM: BOX BOUNDS ff ff pp
-6.0000000000000000e+00 6.0000000000000000e+00
-6.0000000000000000e+00 6.0000000000000000e+00
-6.0000000000000000e+00 6.0000000000000000e+00
ITEM: ATOMS id type xs ys zs
1 2 0.520741 0.51064 0.5
2 1 0.600372 0.486553 0.5
3 1 0.540428 0.544867 0.5
4 1 0.476801 0.490925 0.5
5 1 0.534543 0.429541 0.5
6 1 0.597869 0.493391 0.5
7 1 0.499231 0.532455 0.5
ITEM: TIMESTEP
90
ITEM: NUMBER OF ATOMS
7
ITEM: BOX BOUNDS ff ff pp
-6.0000000000000000e+00 6.0000000000000000e+00
-6.0000000000000000e+00 6.0000000000000000e+00
-6.0000000000000000e+00 6.0000000000000000e+00
ITEM: ATOMS id type xs ys zs
1 2 0.523814 0.514139 0.5
2 1 0.602303 0.485523 0.5
3 1 0.540281 0.541508 0.5
4 1 0.477067 0.48694 0.5
5 1 0.541281 0.433034 0.5
6 1 0.598746 0.491573 0.5
7 1 0.498895 0.532205 0.5
ITEM: TIMESTEP
100
ITEM: NUMBER OF ATOMS
7
ITEM: BOX BOUNDS ff ff pp
-6.0000000000000000e+00 6.0000000000000000e+00
-6.0000000000000000e+00 6.0000000000000000e+00
-6.0000000000000000e+00 6.0000000000000000e+00
ITEM: ATOMS id type xs ys zs
1 2 0.524628 0.514971 0.5
2 1 0.602856 0.48541 0.5
3 1 0.540217 0.540708 0.5
4 1 0.477118 0.48601 0.5
5 1 0.542512 0.433722 0.5
6 1 0.598956 0.49115 0.5
7 1 0.498693 0.532228 0.5
ITEM: TIMESTEP
110
ITEM: NUMBER OF ATOMS
7
ITEM: BOX BOUNDS ff ff pp
-6.0000000000000000e+00 6.0000000000000000e+00
-6.0000000000000000e+00 6.0000000000000000e+00
-6.0000000000000000e+00 6.0000000000000000e+00
ITEM: ATOMS id type xs ys zs
1 2 0.526581 0.517136 0.5
2 1 0.603491 0.484173 0.5
3 1 0.540151 0.538638 0.5
4 1 0.477685 0.48326 0.5
5 1 0.546975 0.436476 0.5
6 1 0.599532 0.489821 0.5
7 1 0.498232 0.532564 0.5
ITEM: TIMESTEP
120
ITEM: NUMBER OF ATOMS
7
ITEM: BOX BOUNDS ff ff pp
-6.0000000000000000e+00 6.0000000000000000e+00
-6.0000000000000000e+00 6.0000000000000000e+00
-6.0000000000000000e+00 6.0000000000000000e+00
ITEM: ATOMS id type xs ys zs
1 2 0.527825 0.518706 0.5
2 1 0.603705 0.483368 0.5
3 1 0.539957 0.537353 0.5
4 1 0.477592 0.481952 0.5
5 1 0.548569 0.43803 0.5
6 1 0.5996 0.488877 0.5
7 1 0.497814 0.533109 0.5
ITEM: TIMESTEP
130
ITEM: NUMBER OF ATOMS
7
ITEM: BOX BOUNDS ff ff pp
-6.0000000000000000e+00 6.0000000000000000e+00
-6.0000000000000000e+00 6.0000000000000000e+00
-6.0000000000000000e+00 6.0000000000000000e+00
ITEM: ATOMS id type xs ys zs
1 2 0.52824 0.519213 0.5
2 1 0.603959 0.483263 0.5
3 1 0.539897 0.536876 0.5
4 1 0.477504 0.48158 0.5
5 1 0.548898 0.438513 0.5
6 1 0.599594 0.488499 0.5
7 1 0.497633 0.533267 0.5
ITEM: TIMESTEP
140
ITEM: NUMBER OF ATOMS
7
ITEM: BOX BOUNDS ff ff pp
-6.0000000000000000e+00 6.0000000000000000e+00
-6.0000000000000000e+00 6.0000000000000000e+00
-6.0000000000000000e+00 6.0000000000000000e+00
ITEM: ATOMS id type xs ys zs
1 2 0.527204 0.517674 0.5
2 1 0.60434 0.484615 0.5
3 1 0.540009 0.537922 0.5
4 1 0.477441 0.482862 0.5
5 1 0.546905 0.436761 0.5
6 1 0.599561 0.4894 0.5
7 1 0.497866 0.532645 0.5
ITEM: TIMESTEP
150
ITEM: NUMBER OF ATOMS
7
ITEM: BOX BOUNDS ff ff pp
-6.0000000000000000e+00 6.0000000000000000e+00
-6.0000000000000000e+00 6.0000000000000000e+00
-6.0000000000000000e+00 6.0000000000000000e+00
ITEM: ATOMS id type xs ys zs
1 2 0.525352 0.514125 0.5
2 1 0.605069 0.487625 0.5
3 1 0.540278 0.540349 0.5
4 1 0.477671 0.485343 0.5
5 1 0.542468 0.432701 0.5
6 1 0.59973 0.49169 0.5
7 1 0.498784 0.531151 0.5
ITEM: TIMESTEP
160
ITEM: NUMBER OF ATOMS
7
ITEM: BOX BOUNDS ff ff pp
-6.0000000000000000e+00 6.0000000000000000e+00
-6.0000000000000000e+00 6.0000000000000000e+00
-6.0000000000000000e+00 6.0000000000000000e+00
ITEM: ATOMS id type xs ys zs
1 2 0.525036 0.512815 0.5
2 1 0.605555 0.489004 0.5
3 1 0.540335 0.54118 0.5
4 1 0.477896 0.485924 0.5
5 1 0.540751 0.431048 0.5
6 1 0.599959 0.492685 0.5
7 1 0.499278 0.53048 0.5
ITEM: TIMESTEP
170
ITEM: NUMBER OF ATOMS
7
ITEM: BOX BOUNDS ff ff pp
-6.0000000000000000e+00 6.0000000000000000e+00
-6.0000000000000000e+00 6.0000000000000000e+00
-6.0000000000000000e+00 6.0000000000000000e+00
ITEM: ATOMS id type xs ys zs
1 2 0.524874 0.512033 0.5
2 1 0.60587 0.489828 0.5
3 1 0.540377 0.541631 0.5
4 1 0.478067 0.486241 0.5
5 1 0.539819 0.430123 0.5
6 1 0.600121 0.493258 0.5
7 1 0.499555 0.530055 0.5
ITEM: TIMESTEP
180
ITEM: NUMBER OF ATOMS
7
ITEM: BOX BOUNDS ff ff pp
-6.0000000000000000e+00 6.0000000000000000e+00
-6.0000000000000000e+00 6.0000000000000000e+00
-6.0000000000000000e+00 6.0000000000000000e+00
ITEM: ATOMS id type xs ys zs
1 2 0.525025 0.51223 0.5
2 1 0.605972 0.489881 0.5
3 1 0.540326 0.541472 0.5
4 1 0.477959 0.486146 0.5
5 1 0.539754 0.430211 0.5
6 1 0.600096 0.49311 0.5
7 1 0.49947 0.530143 0.5
ITEM: TIMESTEP
190
ITEM: NUMBER OF ATOMS
7
ITEM: BOX BOUNDS ff ff pp
-6.0000000000000000e+00 6.0000000000000000e+00
-6.0000000000000000e+00 6.0000000000000000e+00
-6.0000000000000000e+00 6.0000000000000000e+00
ITEM: ATOMS id type xs ys zs
1 2 0.52497 0.511944 0.5
2 1 0.606177 0.490255 0.5
3 1 0.540363 0.541576 0.5
4 1 0.478027 0.486259 0.5
5 1 0.539529 0.429929 0.5
6 1 0.600156 0.493212 0.5
7 1 0.499526 0.529978 0.5
ITEM: TIMESTEP
200
ITEM: NUMBER OF ATOMS
7
ITEM: BOX BOUNDS ff ff pp
-6.0000000000000000e+00 6.0000000000000000e+00
-6.0000000000000000e+00 6.0000000000000000e+00
-6.0000000000000000e+00 6.0000000000000000e+00
ITEM: ATOMS id type xs ys zs
1 2 0.524942 0.511375 0.5
2 1 0.606462 0.490926 0.5
3 1 0.540393 0.541881 0.5
4 1 0.478213 0.486362 0.5
5 1 0.538975 0.429259 0.5
6 1 0.600321 0.493629 0.5
7 1 0.499781 0.529626 0.5
ITEM: TIMESTEP
210
ITEM: NUMBER OF ATOMS
7
ITEM: BOX BOUNDS ff ff pp
-6.0000000000000000e+00 6.0000000000000000e+00
-6.0000000000000000e+00 6.0000000000000000e+00
-6.0000000000000000e+00 6.0000000000000000e+00
ITEM: ATOMS id type xs ys zs
1 2 0.524962 0.511271 0.5
2 1 0.606539 0.491088 0.5
3 1 0.540391 0.541924 0.5
4 1 0.478242 0.486374 0.5
5 1 0.53884 0.429122 0.5
6 1 0.600357 0.493703 0.5
7 1 0.499825 0.529557 0.5
ITEM: TIMESTEP
220
ITEM: NUMBER OF ATOMS
7
ITEM: BOX BOUNDS ff ff pp
-6.0000000000000000e+00 6.0000000000000000e+00
-6.0000000000000000e+00 6.0000000000000000e+00
-6.0000000000000000e+00 6.0000000000000000e+00
ITEM: ATOMS id type xs ys zs
1 2 0.525095 0.511905 0.5
2 1 0.606405 0.490611 0.5
3 1 0.540333 0.541535 0.5
4 1 0.477992 0.486214 0.5
5 1 0.53928 0.429768 0.5
6 1 0.600181 0.493171 0.5
7 1 0.499539 0.529926 0.5
ITEM: TIMESTEP
230
ITEM: NUMBER OF ATOMS
7
ITEM: BOX BOUNDS ff ff pp
-6.0000000000000000e+00 6.0000000000000000e+00
-6.0000000000000000e+00 6.0000000000000000e+00
-6.0000000000000000e+00 6.0000000000000000e+00
ITEM: ATOMS id type xs ys zs
1 2 0.524948 0.511122 0.5
2 1 0.606698 0.491367 0.5
3 1 0.54041 0.541956 0.5
4 1 0.478261 0.486437 0.5
5 1 0.538703 0.428971 0.5
6 1 0.600383 0.493691 0.5
7 1 0.499837 0.529471 0.5
ITEM: TIMESTEP
240
ITEM: NUMBER OF ATOMS
7
ITEM: BOX BOUNDS ff ff pp
-6.0000000000000000e+00 6.0000000000000000e+00
-6.0000000000000000e+00 6.0000000000000000e+00
-6.0000000000000000e+00 6.0000000000000000e+00
ITEM: ATOMS id type xs ys zs
1 2 0.524857 0.510052 0.5
2 1 0.607119 0.492453 0.5
3 1 0.540487 0.542534 0.5
4 1 0.478654 0.486655 0.5
5 1 0.537769 0.427785 0.5
6 1 0.600711 0.494533 0.5
7 1 0.50031 0.528817 0.5
ITEM: TIMESTEP
250
ITEM: NUMBER OF ATOMS
7
ITEM: BOX BOUNDS ff ff pp
-6.0000000000000000e+00 6.0000000000000000e+00
-6.0000000000000000e+00 6.0000000000000000e+00
-6.0000000000000000e+00 6.0000000000000000e+00
ITEM: ATOMS id type xs ys zs
1 2 0.524842 0.508999 0.5
2 1 0.607544 0.493534 0.5
3 1 0.540545 0.543098 0.5
4 1 0.479062 0.486819 0.5
5 1 0.536775 0.426575 0.5
6 1 0.601071 0.495447 0.5
7 1 0.500811 0.528151 0.5
ITEM: TIMESTEP
260
ITEM: NUMBER OF ATOMS
7
ITEM: BOX BOUNDS ff ff pp
-6.0000000000000000e+00 6.0000000000000000e+00
-6.0000000000000000e+00 6.0000000000000000e+00
-6.0000000000000000e+00 6.0000000000000000e+00
ITEM: ATOMS id type xs ys zs
1 2 0.524836 0.507996 0.5
2 1 0.607913 0.49452 0.5
3 1 0.540601 0.543622 0.5
4 1 0.479461 0.486983 0.5
5 1 0.53589 0.425479 0.5
6 1 0.601394 0.496287 0.5
7 1 0.501286 0.527532 0.5
ITEM: TIMESTEP
270
ITEM: NUMBER OF ATOMS
7
ITEM: BOX BOUNDS ff ff pp
-6.0000000000000000e+00 6.0000000000000000e+00
-6.0000000000000000e+00 6.0000000000000000e+00
-6.0000000000000000e+00 6.0000000000000000e+00
ITEM: ATOMS id type xs ys zs
1 2 0.524953 0.50759 0.5
2 1 0.608113 0.495 0.5
3 1 0.540587 0.543827 0.5
4 1 0.479637 0.486962 0.5
5 1 0.53536 0.42493 0.5
6 1 0.601583 0.496762 0.5
7 1 0.501541 0.527238 0.5
ITEM: TIMESTEP
280
ITEM: NUMBER OF ATOMS
7
ITEM: BOX BOUNDS ff ff pp
-6.0000000000000000e+00 6.0000000000000000e+00
-6.0000000000000000e+00 6.0000000000000000e+00
-6.0000000000000000e+00 6.0000000000000000e+00
ITEM: ATOMS id type xs ys zs
1 2 0.525065 0.506307 0.5
2 1 0.6086 0.496283 0.5
3 1 0.540637 0.544468 0.5
4 1 0.480176 0.487108 0.5
5 1 0.534181 0.423525 0.5
6 1 0.60202 0.497884 0.5
7 1 0.502197 0.526429 0.5
ITEM: TIMESTEP
290
ITEM: NUMBER OF ATOMS
7
ITEM: BOX BOUNDS ff ff pp
-6.0000000000000000e+00 6.0000000000000000e+00
-6.0000000000000000e+00 6.0000000000000000e+00
-6.0000000000000000e+00 6.0000000000000000e+00
ITEM: ATOMS id type xs ys zs
1 2 0.52515 0.506275 0.5
2 1 0.608653 0.496365 0.5
3 1 0.540613 0.544467 0.5
4 1 0.480198 0.487056 0.5
5 1 0.534027 0.42342 0.5
6 1 0.602079 0.498019 0.5
7 1 0.502244 0.526377 0.5
ITEM: TIMESTEP
300
ITEM: NUMBER OF ATOMS
7
ITEM: BOX BOUNDS ff ff pp
-6.0000000000000000e+00 6.0000000000000000e+00
-6.0000000000000000e+00 6.0000000000000000e+00
-6.0000000000000000e+00 6.0000000000000000e+00
ITEM: ATOMS id type xs ys zs
1 2 0.525222 0.50561 0.5
2 1 0.608896 0.497022 0.5
3 1 0.540636 0.544797 0.5
4 1 0.480478 0.487132 0.5
5 1 0.533404 0.422701 0.5
6 1 0.602299 0.498598 0.5
7 1 0.502592 0.525963 0.5
ITEM: TIMESTEP
310
ITEM: NUMBER OF ATOMS
7
ITEM: BOX BOUNDS ff ff pp
-6.0000000000000000e+00 6.0000000000000000e+00
-6.0000000000000000e+00 6.0000000000000000e+00
-6.0000000000000000e+00 6.0000000000000000e+00
ITEM: ATOMS id type xs ys zs
1 2 0.525367 0.505013 0.5
2 1 0.609129 0.497645 0.5
3 1 0.540635 0.545086 0.5
4 1 0.480746 0.487131 0.5
5 1 0.532793 0.422023 0.5
6 1 0.60252 0.499181 0.5
7 1 0.502968 0.525567 0.5
ITEM: TIMESTEP
320
ITEM: NUMBER OF ATOMS
7
ITEM: BOX BOUNDS ff ff pp
-6.0000000000000000e+00 6.0000000000000000e+00
-6.0000000000000000e+00 6.0000000000000000e+00
-6.0000000000000000e+00 6.0000000000000000e+00
ITEM: ATOMS id type xs ys zs
1 2 0.525445 0.504628 0.5
2 1 0.609271 0.498033 0.5
3 1 0.540637 0.545272 0.5
4 1 0.48091 0.487157 0.5
5 1 0.53238 0.421594 0.5
6 1 0.602654 0.499549 0.5
7 1 0.503192 0.525321 0.5
ITEM: TIMESTEP
330
ITEM: NUMBER OF ATOMS
7
ITEM: BOX BOUNDS ff ff pp
-6.0000000000000000e+00 6.0000000000000000e+00
-6.0000000000000000e+00 6.0000000000000000e+00
-6.0000000000000000e+00 6.0000000000000000e+00
ITEM: ATOMS id type xs ys zs
1 2 0.525471 0.504638 0.5
2 1 0.609275 0.498036 0.5
3 1 0.540628 0.545263 0.5
4 1 0.480908 0.487136 0.5
5 1 0.532362 0.42159 0.5
6 1 0.602661 0.499568 0.5
7 1 0.503202 0.525319 0.5
ITEM: TIMESTEP
340
ITEM: NUMBER OF ATOMS
7
ITEM: BOX BOUNDS ff ff pp
-6.0000000000000000e+00 6.0000000000000000e+00
-6.0000000000000000e+00 6.0000000000000000e+00
-6.0000000000000000e+00 6.0000000000000000e+00
ITEM: ATOMS id type xs ys zs
1 2 0.525421 0.505055 0.5
2 1 0.609146 0.497632 0.5
3 1 0.540621 0.545043 0.5
4 1 0.480741 0.487084 0.5
5 1 0.532791 0.422037 0.5
6 1 0.602541 0.499205 0.5
7 1 0.502959 0.525573 0.5
ITEM: TIMESTEP
350
ITEM: NUMBER OF ATOMS
7
ITEM: BOX BOUNDS ff ff pp
-6.0000000000000000e+00 6.0000000000000000e+00
-6.0000000000000000e+00 6.0000000000000000e+00
-6.0000000000000000e+00 6.0000000000000000e+00
ITEM: ATOMS id type xs ys zs
1 2 0.525332 0.505762 0.5
2 1 0.608897 0.496944 0.5
3 1 0.540598 0.544688 0.5
4 1 0.480433 0.487024 0.5
5 1 0.53344 0.422799 0.5
6 1 0.602307 0.498573 0.5
7 1 0.502559 0.526021 0.5
ITEM: TIMESTEP
360
ITEM: NUMBER OF ATOMS
7
ITEM: BOX BOUNDS ff ff pp
-6.0000000000000000e+00 6.0000000000000000e+00
-6.0000000000000000e+00 6.0000000000000000e+00
-6.0000000000000000e+00 6.0000000000000000e+00
ITEM: ATOMS id type xs ys zs
1 2 0.525202 0.50819 0.5
2 1 0.608065 0.494621 0.5
3 1 0.540498 0.543425 0.5
4 1 0.479411 0.486737 0.5
5 1 0.535584 0.425415 0.5
6 1 0.601522 0.496435 0.5
7 1 0.501279 0.527547 0.5
ITEM: TIMESTEP
370
ITEM: NUMBER OF ATOMS
7
ITEM: BOX BOUNDS ff ff pp
-6.0000000000000000e+00 6.0000000000000000e+00
-6.0000000000000000e+00 6.0000000000000000e+00
-6.0000000000000000e+00 6.0000000000000000e+00
ITEM: ATOMS id type xs ys zs
1 2 0.525213 0.510464 0.5
2 1 0.607305 0.492416 0.5
3 1 0.540431 0.542149 0.5
4 1 0.478566 0.486352 0.5
5 1 0.537979 0.428055 0.5
6 1 0.600785 0.494299 0.5
7 1 0.500143 0.528953 0.5
ITEM: TIMESTEP
380
ITEM: NUMBER OF ATOMS
7
ITEM: BOX BOUNDS ff ff pp
-6.0000000000000000e+00 6.0000000000000000e+00
-6.0000000000000000e+00 6.0000000000000000e+00
-6.0000000000000000e+00 6.0000000000000000e+00
ITEM: ATOMS id type xs ys zs
1 2 0.525124 0.510494 0.5
2 1 0.607241 0.492326 0.5
3 1 0.540457 0.542152 0.5
4 1 0.478546 0.486403 0.5
5 1 0.538151 0.42818 0.5
6 1 0.600716 0.494152 0.5
7 1 0.500112 0.529001 0.5
ITEM: TIMESTEP
390
ITEM: NUMBER OF ATOMS
7
ITEM: BOX BOUNDS ff ff pp
-6.0000000000000000e+00 6.0000000000000000e+00
-6.0000000000000000e+00 6.0000000000000000e+00
-6.0000000000000000e+00 6.0000000000000000e+00
ITEM: ATOMS id type xs ys zs
1 2 0.525089 0.510335 0.5
2 1 0.607265 0.492455 0.5
3 1 0.540469 0.542262 0.5
4 1 0.478602 0.48644 0.5
5 1 0.538026 0.428015 0.5
6 1 0.600744 0.494274 0.5
7 1 0.500201 0.528912 0.5
ITEM: TIMESTEP
400
ITEM: NUMBER OF ATOMS
7
ITEM: BOX BOUNDS ff ff pp
-6.0000000000000000e+00 6.0000000000000000e+00
-6.0000000000000000e+00 6.0000000000000000e+00
-6.0000000000000000e+00 6.0000000000000000e+00
ITEM: ATOMS id type xs ys zs
1 2 0.524997 0.509717 0.5
2 1 0.607442 0.492989 0.5
3 1 0.540519 0.542617 0.5
4 1 0.478833 0.486599 0.5
5 1 0.537516 0.427362 0.5
6 1 0.600918 0.494778 0.5
7 1 0.500469 0.528549 0.5
ITEM: TIMESTEP
410
ITEM: NUMBER OF ATOMS
7
ITEM: BOX BOUNDS ff ff pp
-6.0000000000000000e+00 6.0000000000000000e+00
-6.0000000000000000e+00 6.0000000000000000e+00
-6.0000000000000000e+00 6.0000000000000000e+00
ITEM: ATOMS id type xs ys zs
1 2 0.525058 0.509729 0.5
2 1 0.60746 0.493008 0.5
3 1 0.540503 0.54261 0.5
4 1 0.478847 0.486535 0.5
5 1 0.53748 0.427324 0.5
6 1 0.600949 0.494843 0.5
7 1 0.500503 0.528532 0.5
ITEM: TIMESTEP
420
ITEM: NUMBER OF ATOMS
7
ITEM: BOX BOUNDS ff ff pp
-6.0000000000000000e+00 6.0000000000000000e+00
-6.0000000000000000e+00 6.0000000000000000e+00
-6.0000000000000000e+00 6.0000000000000000e+00
ITEM: ATOMS id type xs ys zs
1 2 0.525075 0.509904 0.5
2 1 0.607423 0.492842 0.5
3 1 0.540501 0.542492 0.5
4 1 0.478796 0.48649 0.5
5 1 0.537689 0.427532 0.5
6 1 0.600912 0.494692 0.5
7 1 0.500406 0.528629 0.5
ITEM: TIMESTEP
430
ITEM: NUMBER OF ATOMS
7
ITEM: BOX BOUNDS ff ff pp
-6.0000000000000000e+00 6.0000000000000000e+00
-6.0000000000000000e+00 6.0000000000000000e+00
-6.0000000000000000e+00 6.0000000000000000e+00
ITEM: ATOMS id type xs ys zs
1 2 0.525058 0.509825 0.5
2 1 0.607434 0.492907 0.5
3 1 0.540503 0.542547 0.5
4 1 0.478816 0.48652 0.5
5 1 0.537595 0.427443 0.5
6 1 0.600926 0.494757 0.5
7 1 0.500444 0.528589 0.5
ITEM: TIMESTEP
440
ITEM: NUMBER OF ATOMS
7
ITEM: BOX BOUNDS ff ff pp
-6.0000000000000000e+00 6.0000000000000000e+00
-6.0000000000000000e+00 6.0000000000000000e+00
-6.0000000000000000e+00 6.0000000000000000e+00
ITEM: ATOMS id type xs ys zs
1 2 0.525016 0.509646 0.5
2 1 0.60746 0.493057 0.5
3 1 0.540507 0.542668 0.5
4 1 0.478854 0.486604 0.5
5 1 0.53735 0.427239 0.5
6 1 0.600952 0.494906 0.5
7 1 0.500519 0.528501 0.5
ITEM: TIMESTEP
450
ITEM: NUMBER OF ATOMS
7
ITEM: BOX BOUNDS ff ff pp
-6.0000000000000000e+00 6.0000000000000000e+00
-6.0000000000000000e+00 6.0000000000000000e+00
-6.0000000000000000e+00 6.0000000000000000e+00
ITEM: ATOMS id type xs ys zs
1 2 0.525023 0.509632 0.5
2 1 0.607463 0.493076 0.5
3 1 0.540503 0.54268 0.5
4 1 0.478855 0.486604 0.5
5 1 0.53731 0.427209 0.5
6 1 0.600957 0.494931 0.5
7 1 0.500532 0.528492 0.5
ITEM: TIMESTEP
460
ITEM: NUMBER OF ATOMS
7
ITEM: BOX BOUNDS ff ff pp
-6.0000000000000000e+00 6.0000000000000000e+00
-6.0000000000000000e+00 6.0000000000000000e+00
-6.0000000000000000e+00 6.0000000000000000e+00
ITEM: ATOMS id type xs ys zs
1 2 0.525122 0.509984 0.5
2 1 0.607422 0.492784 0.5
3 1 0.540495 0.542435 0.5
4 1 0.478793 0.486422 0.5
5 1 0.53781 0.427611 0.5
6 1 0.600916 0.494648 0.5
7 1 0.500388 0.528658 0.5
ITEM: TIMESTEP
470
ITEM: NUMBER OF ATOMS
7
ITEM: BOX BOUNDS ff ff pp
-6.0000000000000000e+00 6.0000000000000000e+00
-6.0000000000000000e+00 6.0000000000000000e+00
-6.0000000000000000e+00 6.0000000000000000e+00
ITEM: ATOMS id type xs ys zs
1 2 0.525204 0.510346 0.5
2 1 0.607354 0.492471 0.5
3 1 0.540483 0.542197 0.5
4 1 0.478707 0.486267 0.5
5 1 0.538277 0.428028 0.5
6 1 0.600848 0.494337 0.5
7 1 0.500238 0.528846 0.5
ITEM: TIMESTEP
480
ITEM: NUMBER OF ATOMS
7
ITEM: BOX BOUNDS ff ff pp
-6.0000000000000000e+00 6.0000000000000000e+00
-6.0000000000000000e+00 6.0000000000000000e+00
-6.0000000000000000e+00 6.0000000000000000e+00
ITEM: ATOMS id type xs ys zs
1 2 0.525235 0.510738 0.5
2 1 0.607245 0.492119 0.5
3 1 0.540468 0.541968 0.5
4 1 0.478563 0.486185 0.5
5 1 0.538635 0.428464 0.5
6 1 0.600735 0.493989 0.5
7 1 0.500055 0.52908 0.5
ITEM: TIMESTEP
490
ITEM: NUMBER OF ATOMS
7
ITEM: BOX BOUNDS ff ff pp
-6.0000000000000000e+00 6.0000000000000000e+00
-6.0000000000000000e+00 6.0000000000000000e+00
-6.0000000000000000e+00 6.0000000000000000e+00
ITEM: ATOMS id type xs ys zs
1 2 0.525217 0.510667 0.5
2 1 0.607245 0.492167 0.5
3 1 0.540471 0.542018 0.5
4 1 0.478587 0.486208 0.5
5 1 0.538598 0.428405 0.5
6 1 0.600738 0.494029 0.5
7 1 0.500092 0.529046 0.5
ITEM: TIMESTEP
500
ITEM: NUMBER OF ATOMS
7
ITEM: BOX BOUNDS ff ff pp
-6.0000000000000000e+00 6.0000000000000000e+00
-6.0000000000000000e+00 6.0000000000000000e+00
-6.0000000000000000e+00 6.0000000000000000e+00
ITEM: ATOMS id type xs ys zs
1 2 0.525332 0.511062 0.5
2 1 0.607153 0.491833 0.5
3 1 0.540442 0.541772 0.5
4 1 0.478482 0.486042 0.5
5 1 0.53902 0.42884 0.5
6 1 0.600651 0.493711 0.5
7 1 0.49995 0.529259 0.5
ITEM: TIMESTEP
510
ITEM: NUMBER OF ATOMS
7
ITEM: BOX BOUNDS ff ff pp
-6.0000000000000000e+00 6.0000000000000000e+00
-6.0000000000000000e+00 6.0000000000000000e+00
-6.0000000000000000e+00 6.0000000000000000e+00
ITEM: ATOMS id type xs ys zs
1 2 0.525702 0.512902 0.5
2 1 0.606594 0.490252 0.5
3 1 0.540273 0.540723 0.5
4 1 0.477782 0.485579 0.5
5 1 0.540354 0.430771 0.5
6 1 0.600096 0.492197 0.5
7 1 0.499225 0.530373 0.5
ITEM: TIMESTEP
520
ITEM: NUMBER OF ATOMS
7
ITEM: BOX BOUNDS ff ff pp
-6.0000000000000000e+00 6.0000000000000000e+00
-6.0000000000000000e+00 6.0000000000000000e+00
-6.0000000000000000e+00 6.0000000000000000e+00
ITEM: ATOMS id type xs ys zs
1 2 0.526168 0.514674 0.5
2 1 0.606086 0.48871 0.5
3 1 0.540128 0.539647 0.5
4 1 0.477204 0.485028 0.5
5 1 0.541907 0.432746 0.5
6 1 0.599586 0.49068 0.5
7 1 0.49857 0.531417 0.5
ITEM: TIMESTEP
530
ITEM: NUMBER OF ATOMS
7
ITEM: BOX BOUNDS ff ff pp
-6.0000000000000000e+00 6.0000000000000000e+00
-6.0000000000000000e+00 6.0000000000000000e+00
-6.0000000000000000e+00 6.0000000000000000e+00
ITEM: ATOMS id type xs ys zs
1 2 0.526643 0.51592 0.5
2 1 0.605793 0.487685 0.5
3 1 0.540011 0.538849 0.5
4 1 0.476897 0.484452 0.5
5 1 0.543131 0.434139 0.5
6 1 0.599302 0.489683 0.5
7 1 0.498182 0.532087 0.5
ITEM: TIMESTEP
540
ITEM: NUMBER OF ATOMS
7
ITEM: BOX BOUNDS ff ff pp
-6.0000000000000000e+00 6.0000000000000000e+00
-6.0000000000000000e+00 6.0000000000000000e+00
-6.0000000000000000e+00 6.0000000000000000e+00
ITEM: ATOMS id type xs ys zs
1 2 0.525696 0.514097 0.5
2 1 0.606013 0.488968 0.5
3 1 0.540258 0.540092 0.5
4 1 0.477311 0.485503 0.5
5 1 0.541702 0.4324 0.5
6 1 0.599496 0.490764 0.5
7 1 0.498731 0.531199 0.5
ITEM: TIMESTEP
550
ITEM: NUMBER OF ATOMS
7
ITEM: BOX BOUNDS ff ff pp
-6.0000000000000000e+00 6.0000000000000000e+00
-6.0000000000000000e+00 6.0000000000000000e+00
-6.0000000000000000e+00 6.0000000000000000e+00
ITEM: ATOMS id type xs ys zs
1 2 0.52554 0.513475 0.5
2 1 0.606197 0.489541 0.5
3 1 0.540267 0.540472 0.5
4 1 0.477532 0.485601 0.5
5 1 0.541132 0.431657 0.5
6 1 0.599718 0.491444 0.5
7 1 0.498947 0.5308 0.5
ITEM: TIMESTEP
560
ITEM: NUMBER OF ATOMS
7
ITEM: BOX BOUNDS ff ff pp
-6.0000000000000000e+00 6.0000000000000000e+00
-6.0000000000000000e+00 6.0000000000000000e+00
-6.0000000000000000e+00 6.0000000000000000e+00
ITEM: ATOMS id type xs ys zs
1 2 0.525435 0.512868 0.5
2 1 0.606466 0.490156 0.5
3 1 0.540266 0.54076 0.5
4 1 0.477839 0.485551 0.5
5 1 0.540919 0.431024 0.5
6 1 0.600005 0.492109 0.5
7 1 0.499105 0.530326 0.5
ITEM: TIMESTEP
570
ITEM: NUMBER OF ATOMS
7
ITEM: BOX BOUNDS ff ff pp
-6.0000000000000000e+00 6.0000000000000000e+00
-6.0000000000000000e+00 6.0000000000000000e+00
-6.0000000000000000e+00 6.0000000000000000e+00
ITEM: ATOMS id type xs ys zs
1 2 0.525577 0.511495 0.5
2 1 0.607368 0.491734 0.5
3 1 0.540268 0.541195 0.5
4 1 0.478866 0.484849 0.5
5 1 0.541353 0.429697 0.5
6 1 0.600922 0.493714 0.5
7 1 0.499571 0.529028 0.5
ITEM: TIMESTEP
580
ITEM: NUMBER OF ATOMS
7
ITEM: BOX BOUNDS ff ff pp
-6.0000000000000000e+00 6.0000000000000000e+00
-6.0000000000000000e+00 6.0000000000000000e+00
-6.0000000000000000e+00 6.0000000000000000e+00
ITEM: ATOMS id type xs ys zs
1 2 0.52607 0.51056 0.5
2 1 0.608309 0.493012 0.5
3 1 0.540309 0.541238 0.5
4 1 0.47992 0.483821 0.5
5 1 0.54255 0.428869 0.5
6 1 0.601828 0.494906 0.5
7 1 0.500031 0.52789 0.5
ITEM: TIMESTEP
590
ITEM: NUMBER OF ATOMS
7
ITEM: BOX BOUNDS ff ff pp
-6.0000000000000000e+00 6.0000000000000000e+00
-6.0000000000000000e+00 6.0000000000000000e+00
-6.0000000000000000e+00 6.0000000000000000e+00
ITEM: ATOMS id type xs ys zs
1 2 0.526214 0.510351 0.5
2 1 0.608561 0.493332 0.5
3 1 0.540336 0.541217 0.5
4 1 0.480206 0.483525 0.5
5 1 0.542973 0.428717 0.5
6 1 0.602052 0.495138 0.5
7 1 0.500157 0.527603 0.5
ITEM: TIMESTEP
600
ITEM: NUMBER OF ATOMS
7
ITEM: BOX BOUNDS ff ff pp
-6.0000000000000000e+00 6.0000000000000000e+00
-6.0000000000000000e+00 6.0000000000000000e+00
-6.0000000000000000e+00 6.0000000000000000e+00
ITEM: ATOMS id type xs ys zs
1 2 0.526437 0.51008 0.5
2 1 0.608939 0.493738 0.5
3 1 0.540382 0.541164 0.5
4 1 0.480617 0.483076 0.5
5 1 0.543605 0.428525 0.5
6 1 0.602405 0.495478 0.5
7 1 0.500305 0.527213 0.5
ITEM: TIMESTEP
610
ITEM: NUMBER OF ATOMS
7
ITEM: BOX BOUNDS ff ff pp
-6.0000000000000000e+00 6.0000000000000000e+00
-6.0000000000000000e+00 6.0000000000000000e+00
-6.0000000000000000e+00 6.0000000000000000e+00
ITEM: ATOMS id type xs ys zs
1 2 0.527241 0.509429 0.5
2 1 0.610057 0.494805 0.5
3 1 0.540544 0.54083 0.5
4 1 0.481899 0.481613 0.5
5 1 0.545811 0.428165 0.5
6 1 0.603465 0.49637 0.5
7 1 0.500748 0.526093 0.5
ITEM: TIMESTEP
620
ITEM: NUMBER OF ATOMS
7
ITEM: BOX BOUNDS ff ff pp
-6.0000000000000000e+00 6.0000000000000000e+00
-6.0000000000000000e+00 6.0000000000000000e+00
-6.0000000000000000e+00 6.0000000000000000e+00
ITEM: ATOMS id type xs ys zs
1 2 0.529658 0.508729 0.5
2 1 0.61281 0.496533 0.5
3 1 0.541188 0.539261 0.5
4 1 0.48512 0.477583 0.5
5 1 0.552524 0.42847 0.5
6 1 0.606063 0.497611 0.5
7 1 0.501733 0.523739 0.5
ITEM: TIMESTEP
630
ITEM: NUMBER OF ATOMS
7
ITEM: BOX BOUNDS ff ff pp
-6.0000000000000000e+00 6.0000000000000000e+00
-6.0000000000000000e+00 6.0000000000000000e+00
-6.0000000000000000e+00 6.0000000000000000e+00
ITEM: ATOMS id type xs ys zs
1 2 0.534483 0.511081 0.5
2 1 0.617162 0.495542 0.5
3 1 0.543406 0.534066 0.5
4 1 0.490632 0.469804 0.5
5 1 0.566665 0.434284 0.5
6 1 0.610233 0.495609 0.5
7 1 0.502781 0.521452 0.5
ITEM: TIMESTEP
640
ITEM: NUMBER OF ATOMS
7
ITEM: BOX BOUNDS ff ff pp
-6.0000000000000000e+00 6.0000000000000000e+00
-6.0000000000000000e+00 6.0000000000000000e+00
-6.0000000000000000e+00 6.0000000000000000e+00
ITEM: ATOMS id type xs ys zs
1 2 0.534275 0.514147 0.5
2 1 0.615443 0.491784 0.5
3 1 0.54365 0.533749 0.5
4 1 0.488021 0.471809 0.5
5 1 0.563501 0.436269 0.5
6 1 0.608597 0.492132 0.5
7 1 0.502097 0.524669 0.5
ITEM: TIMESTEP
650
ITEM: NUMBER OF ATOMS
7
ITEM: BOX BOUNDS ff ff pp
-6.0000000000000000e+00 6.0000000000000000e+00
-6.0000000000000000e+00 6.0000000000000000e+00
-6.0000000000000000e+00 6.0000000000000000e+00
ITEM: ATOMS id type xs ys zs
1 2 0.53586 0.514756 0.5
2 1 0.616738 0.491774 0.5
3 1 0.544038 0.532381 0.5
4 1 0.489848 0.469058 0.5
5 1 0.567051 0.437534 0.5
6 1 0.609938 0.492356 0.5
7 1 0.502497 0.523811 0.5
ITEM: TIMESTEP
660
ITEM: NUMBER OF ATOMS
7
ITEM: BOX BOUNDS ff ff pp
-6.0000000000000000e+00 6.0000000000000000e+00
-6.0000000000000000e+00 6.0000000000000000e+00
-6.0000000000000000e+00 6.0000000000000000e+00
ITEM: ATOMS id type xs ys zs
1 2 0.535389 0.514634 0.5
2 1 0.616268 0.491654 0.5
3 1 0.543865 0.532831 0.5
4 1 0.48923 0.469902 0.5
5 1 0.565764 0.437037 0.5
6 1 0.609514 0.492479 0.5
7 1 0.502356 0.524129 0.5
ITEM: TIMESTEP
670
ITEM: NUMBER OF ATOMS
7
ITEM: BOX BOUNDS ff ff pp
-6.0000000000000000e+00 6.0000000000000000e+00
-6.0000000000000000e+00 6.0000000000000000e+00
-6.0000000000000000e+00 6.0000000000000000e+00
ITEM: ATOMS id type xs ys zs
1 2 0.535528 0.51463 0.5
2 1 0.616461 0.491862 0.5
3 1 0.54378 0.532618 0.5
4 1 0.489577 0.469302 0.5
5 1 0.566583 0.43729 0.5
6 1 0.609716 0.492722 0.5
7 1 0.502288 0.523811 0.5
ITEM: TIMESTEP
680
ITEM: NUMBER OF ATOMS
7
ITEM: BOX BOUNDS ff ff pp
-6.0000000000000000e+00 6.0000000000000000e+00
-6.0000000000000000e+00 6.0000000000000000e+00
-6.0000000000000000e+00 6.0000000000000000e+00
ITEM: ATOMS id type xs ys zs
1 2 0.535185 0.514407 0.5
2 1 0.61703 0.495041 0.5
3 1 0.541866 0.531222 0.5
4 1 0.491938 0.464355 0.5
5 1 0.571673 0.439487 0.5
6 1 0.610272 0.495616 0.5
7 1 0.500727 0.520783 0.5
ITEM: TIMESTEP
690
ITEM: NUMBER OF ATOMS
7
ITEM: BOX BOUNDS ff ff pp
-6.0000000000000000e+00 6.0000000000000000e+00
-6.0000000000000000e+00 6.0000000000000000e+00
-6.0000000000000000e+00 6.0000000000000000e+00
ITEM: ATOMS id type xs ys zs
1 2 0.528884 0.512096 0.5
2 1 0.612288 0.500804 0.5
3 1 0.535855 0.533977 0.5
4 1 0.488455 0.465508 0.5
5 1 0.566705 0.437789 0.5
6 1 0.605621 0.501412 0.5
7 1 0.49611 0.519001 0.5
ITEM: TIMESTEP
700
ITEM: NUMBER OF ATOMS
7
ITEM: BOX BOUNDS ff ff pp
-6.0000000000000000e+00 6.0000000000000000e+00
-6.0000000000000000e+00 6.0000000000000000e+00
-6.0000000000000000e+00 6.0000000000000000e+00
ITEM: ATOMS id type xs ys zs
1 2 0.526118 0.510995 0.5
2 1 0.609767 0.502045 0.5
3 1 0.533761 0.53624 0.5
4 1 0.4855 0.468373 0.5
5 1 0.562069 0.435805 0.5
6 1 0.603042 0.502672 0.5
7 1 0.494618 0.519753 0.5
ITEM: TIMESTEP
710
ITEM: NUMBER OF ATOMS
7
ITEM: BOX BOUNDS ff ff pp
-6.0000000000000000e+00 6.0000000000000000e+00
-6.0000000000000000e+00 6.0000000000000000e+00
-6.0000000000000000e+00 6.0000000000000000e+00