ITEM: TIMESTEP
0
ITEM: NUMBER OF ATOMS
7
ITEM: BOX BOUNDS ff ff pp
-6.0000000000000000e+00 6.0000000000000000e+00
-6.0000000000000000e+00 6.0000000000000000e+00
-6.0000000000000000e+00 6.0000000000000000e+00
ITEM: ATOMS id type xs ys zs
1 2 0.427807 0.518843 0.5
2 1 0.465817 0.588219 0.5
3 1 0.51003 0.5226 0.5
4 1 0.581633 0.485891 0.5
5 1 0.50292 0.492866 0.5
6 1 0.49598 0.528171 0.5
7 1 0.503303 0.514916 0.5
ITEM: TIMESTEP
10
ITEM: NUMBER OF ATOMS
7
ITEM: BOX BOUNDS ff ff pp
-6.0000000000000000e+00 6.0000000000000000e+00
-6.0000000000000000e+00 6.0000000000000000e+00
-6.0000000000000000e+00 6.0000000000000000e+00
ITEM: ATOMS id type xs ys zs
1 2 0.425033 0.51817 0.5
2 1 0.465259 0.591759 0.5
3 1 0.511312 0.522543 0.5
4 1 0.585454 0.484224 0.5
5 1 0.502566 0.491721 0.5
6 1 0.495652 0.527242 0.5
7 1 0.503305 0.513922 0.5
ITEM: TIMESTEP
20
ITEM: NUMBER OF ATOMS
7
ITEM: BOX BOUNDS ff ff pp
-6.0000000000000000e+00 6.0000000000000000e+00
-6.0000000000000000e+00 6.0000000000000000e+00
-6.0000000000000000e+00 6.0000000000000000e+00
ITEM: ATOMS id type xs ys zs
1 2 0.424903 0.518373 0.5
2 1 0.465029 0.591443 0.5
3 1 0.511555 0.522431 0.5
4 1 0.585488 0.484109 0.5
5 1 0.502382 0.491085 0.5
6 1 0.496511 0.527924 0.5
7 1 0.503012 0.513689 0.5
ITEM: TIMESTEP
30
ITEM: NUMBER OF ATOMS
7
ITEM: BOX BOUNDS ff ff pp
-6.0000000000000000e+00 6.0000000000000000e+00
-6.0000000000000000e+00 6.0000000000000000e+00
-6.0000000000000000e+00 6.0000000000000000e+00
ITEM: ATOMS id type xs ys zs
1 2 0.424923 0.518359 0.5
2 1 0.464991 0.591437 0.5
3 1 0.511552 0.522444 0.5
4 1 0.585469 0.484062 0.5
5 1 0.502377 0.491043 0.5
6 1 0.496572 0.528016 0.5
7 1 0.503023 0.513644 0.5
ITEM: TIMESTEP
40
ITEM: NUMBER OF ATOMS
7
ITEM: BOX BOUNDS ff ff pp
-6.0000000000000000e+00 6.0000000000000000e+00
-6.0000000000000000e+00 6.0000000000000000e+00
-6.0000000000000000e+00 6.0000000000000000e+00
ITEM: ATOMS id type xs ys zs
1 2 0.424956 0.518321 0.5
2 1 0.464915 0.591456 0.5
3 1 0.511558 0.522458 0.5
4 1 0.585437 0.483956 0.5
5 1 0.502368 0.490955 0.5
6 1 0.496666 0.528165 0.5
7 1 0.503078 0.513569 0.5
ITEM: TIMESTEP
50
ITEM: NUMBER OF ATOMS
7
ITEM: BOX BOUNDS ff ff pp
-6.0000000000000000e+00 6.0000000000000000e+00
-6.0000000000000000e+00 6.0000000000000000e+00
-6.0000000000000000e+00 6.0000000000000000e+00
ITEM: ATOMS id type xs ys zs
1 2 0.424985 0.518297 0.5
2 1 0.46488 0.591462 0.5
3 1 0.511568 0.522462 0.5
4 1 0.585416 0.483875 0.5
5 1 0.502365 0.490895 0.5
6 1 0.49672 0.528238 0.5
7 1 0.503121 0.513517 0.5
ITEM: TIMESTEP
60
ITEM: NUMBER OF ATOMS
7
ITEM: BOX BOUNDS ff ff pp
-6.0000000000000000e+00 6.0000000000000000e+00
-6.0000000000000000e+00 6.0000000000000000e+00
-6.0000000000000000e+00 6.0000000000000000e+00
ITEM: ATOMS id type xs ys zs
1 2 0.424992 0.518291 0.5
2 1 0.464876 0.591462 0.5
3 1 0.511571 0.52246 0.5
4 1 0.585412 0.483854 0.5
5 1 0.502365 0.49088 0.5
6 1 0.496732 0.52825 0.5
7 1 0.503131 0.513504 0.5
ITEM: TIMESTEP
70
ITEM: NUMBER OF ATOMS
7
ITEM: BOX BOUNDS ff ff pp
-6.0000000000000000e+00 6.0000000000000000e+00
-6.0000000000000000e+00 6.0000000000000000e+00
-6.0000000000000000e+00 6.0000000000000000e+00
ITEM: ATOMS id type xs ys zs
1 2 0.425005 0.518282 0.5
2 1 0.464875 0.59146 0.5
3 1 0.511578 0.522454 0.5
4 1 0.585407 0.483816 0.5
5 1 0.502366 0.490855 0.5
6 1 0.496753 0.528265 0.5
7 1 0.503148 0.513481 0.5
ITEM: TIMESTEP
80
ITEM: NUMBER OF ATOMS
7
ITEM: BOX BOUNDS ff ff pp
-6.0000000000000000e+00 6.0000000000000000e+00
-6.0000000000000000e+00 6.0000000000000000e+00
-6.0000000000000000e+00 6.0000000000000000e+00
ITEM: ATOMS id type xs ys zs
1 2 0.425017 0.518274 0.5
2 1 0.464884 0.591453 0.5
3 1 0.511587 0.522441 0.5
4 1 0.585404 0.483775 0.5
5 1 0.502368 0.490829 0.5
6 1 0.496772 0.528268 0.5
7 1 0.503163 0.513457 0.5
ITEM: TIMESTEP
90
ITEM: NUMBER OF ATOMS
7
ITEM: BOX BOUNDS ff ff pp
-6.0000000000000000e+00 6.0000000000000000e+00
-6.0000000000000000e+00 6.0000000000000000e+00
-6.0000000000000000e+00 6.0000000000000000e+00
ITEM: ATOMS id type xs ys zs
1 2 0.425019 0.518273 0.5
2 1 0.464886 0.591452 0.5
3 1 0.511589 0.522438 0.5
4 1 0.585404 0.483768 0.5
5 1 0.502369 0.490825 0.5
6 1 0.496775 0.528268 0.5
7 1 0.503165 0.513453 0.5
ITEM: TIMESTEP
100
ITEM: NUMBER OF ATOMS
7
ITEM: BOX BOUNDS ff ff pp
-6.0000000000000000e+00 6.0000000000000000e+00
-6.0000000000000000e+00 6.0000000000000000e+00
-6.0000000000000000e+00 6.0000000000000000e+00
ITEM: ATOMS id type xs ys zs
1 2 0.425024 0.518271 0.5
2 1 0.464893 0.591448 0.5
3 1 0.511592 0.522432 0.5
4 1 0.585404 0.483752 0.5
5 1 0.50237 0.490816 0.5
6 1 0.496781 0.528265 0.5
7 1 0.50317 0.513445 0.5
ITEM: TIMESTEP
110
ITEM: NUMBER OF ATOMS
7
ITEM: BOX BOUNDS ff ff pp
-6.0000000000000000e+00 6.0000000000000000e+00
-6.0000000000000000e+00 6.0000000000000000e+00
-6.0000000000000000e+00 6.0000000000000000e+00
ITEM: ATOMS id type xs ys zs
1 2 0.42503 0.518268 0.5
2 1 0.464903 0.591443 0.5
3 1 0.511598 0.522421 0.5
4 1 0.585405 0.483731 0.5
5 1 0.502372 0.490804 0.5
6 1 0.496789 0.528259 0.5
7 1 0.503176 0.513433 0.5
ITEM: TIMESTEP
120
ITEM: NUMBER OF ATOMS
7
ITEM: BOX BOUNDS ff ff pp
-6.0000000000000000e+00 6.0000000000000000e+00
-6.0000000000000000e+00 6.0000000000000000e+00
-6.0000000000000000e+00 6.0000000000000000e+00
ITEM: ATOMS id type xs ys zs
1 2 0.425032 0.518267 0.5
2 1 0.464907 0.591441 0.5
3 1 0.5116 0.522418 0.5
4 1 0.585405 0.483724 0.5
5 1 0.502373 0.4908 0.5
6 1 0.496792 0.528256 0.5
7 1 0.503178 0.51343 0.5
ITEM: TIMESTEP
130
ITEM: NUMBER OF ATOMS
7
ITEM: BOX BOUNDS ff ff pp
-6.0000000000000000e+00 6.0000000000000000e+00
-6.0000000000000000e+00 6.0000000000000000e+00
-6.0000000000000000e+00 6.0000000000000000e+00
ITEM: ATOMS id type xs ys zs
1 2 0.425033 0.518266 0.5
2 1 0.464911 0.591439 0.5
3 1 0.511602 0.522414 0.5
4 1 0.585406 0.483718 0.5
5 1 0.502373 0.490797 0.5
6 1 0.496794 0.528254 0.5
7 1 0.50318 0.513426 0.5
ITEM: TIMESTEP
140
ITEM: NUMBER OF ATOMS
7
ITEM: BOX BOUNDS ff ff pp
-6.0000000000000000e+00 6.0000000000000000e+00
-6.0000000000000000e+00 6.0000000000000000e+00
-6.0000000000000000e+00 6.0000000000000000e+00
ITEM: ATOMS id type xs ys zs
1 2 0.425036 0.518265 0.5
2 1 0.464916 0.591436 0.5
3 1 0.511604 0.52241 0.5
4 1 0.585406 0.483711 0.5
5 1 0.502374 0.490793 0.5
6 1 0.496797 0.52825 0.5
7 1 0.503182 0.513422 0.5
ITEM: TIMESTEP
150
ITEM: NUMBER OF ATOMS
7
ITEM: BOX BOUNDS ff ff pp
-6.0000000000000000e+00 6.0000000000000000e+00
-6.0000000000000000e+00 6.0000000000000000e+00
-6.0000000000000000e+00 6.0000000000000000e+00
ITEM: ATOMS id type xs ys zs
1 2 0.425036 0.518265 0.5
2 1 0.464917 0.591436 0.5
3 1 0.511605 0.522409 0.5
4 1 0.585406 0.483708 0.5
5 1 0.502375 0.490792 0.5
6 1 0.496797 0.528249 0.5
7 1 0.503182 0.513421 0.5
ITEM: TIMESTEP
160
ITEM: NUMBER OF ATOMS
7
ITEM: BOX BOUNDS ff ff pp
-6.0000000000000000e+00 6.0000000000000000e+00
-6.0000000000000000e+00 6.0000000000000000e+00
-6.0000000000000000e+00 6.0000000000000000e+00
ITEM: ATOMS id type xs ys zs
1 2 0.425037 0.518265 0.5
2 1 0.464919 0.591435 0.5
3 1 0.511606 0.522408 0.5
4 1 0.585407 0.483706 0.5
5 1 0.502375 0.490791 0.5
6 1 0.496798 0.528248 0.5
7 1 0.503183 0.51342 0.5
ITEM: TIMESTEP
170
ITEM: NUMBER OF ATOMS
7
ITEM: BOX BOUNDS ff ff pp
-6.0000000000000000e+00 6.0000000000000000e+00
-6.0000000000000000e+00 6.0000000000000000e+00
-6.0000000000000000e+00 6.0000000000000000e+00
ITEM: ATOMS id type xs ys zs
1 2 0.425037 0.518264 0.5
2 1 0.46492 0.591434 0.5
3 1 0.511606 0.522407 0.5
4 1 0.585407 0.483705 0.5
5 1 0.502375 0.49079 0.5
6 1 0.496799 0.528247 0.5
7 1 0.503183 0.513419 0.5
ITEM: TIMESTEP
180
ITEM: NUMBER OF ATOMS
7
ITEM: BOX BOUNDS ff ff pp
-6.0000000000000000e+00 6.0000000000000000e+00
-6.0000000000000000e+00 6.0000000000000000e+00
-6.0000000000000000e+00 6.0000000000000000e+00
ITEM: ATOMS id type xs ys zs
1 2 0.425038 0.518264 0.5
2 1 0.464921 0.591434 0.5
3 1 0.511607 0.522406 0.5
4 1 0.585407 0.483703 0.5
5 1 0.502375 0.490789 0.5
6 1 0.496799 0.528246 0.5
7 1 0.503184 0.513418 0.5
ITEM: TIMESTEP
190
ITEM: NUMBER OF ATOMS
7
ITEM: BOX BOUNDS ff ff pp
-6.0000000000000000e+00 6.0000000000000000e+00
-6.0000000000000000e+00 6.0000000000000000e+00
-6.0000000000000000e+00 6.0000000000000000e+00
ITEM: ATOMS id type xs ys zs
1 2 0.425038 0.518264 0.5
2 1 0.464921 0.591434 0.5
3 1 0.511607 0.522405 0.5
4 1 0.585407 0.483702 0.5
5 1 0.502375 0.490789 0.5
6 1 0.496799 0.528246 0.5
7 1 0.503184 0.513418 0.5
ITEM: TIMESTEP
200
ITEM: NUMBER OF ATOMS
7
ITEM: BOX BOUNDS ff ff pp
-6.0000000000000000e+00 6.0000000000000000e+00
-6.0000000000000000e+00 6.0000000000000000e+00
-6.0000000000000000e+00 6.0000000000000000e+00
ITEM: ATOMS id type xs ys zs
1 2 0.425038 0.518264 0.5
2 1 0.464922 0.591433 0.5
3 1 0.511607 0.522405 0.5
4 1 0.585407 0.483701 0.5
5 1 0.502375 0.490788 0.5
6 1 0.4968 0.528246 0.5
7 1 0.503184 0.513417 0.5
ITEM: TIMESTEP
210
ITEM: NUMBER OF ATOMS
7
ITEM: BOX BOUNDS ff ff pp
-6.0000000000000000e+00 6.0000000000000000e+00
-6.0000000000000000e+00 6.0000000000000000e+00
-6.0000000000000000e+00 6.0000000000000000e+00
ITEM: ATOMS id type xs ys zs
1 2 0.425038 0.518264 0.5
2 1 0.464922 0.591433 0.5
3 1 0.511607 0.522404 0.5
4 1 0.585407 0.4837 0.5
5 1 0.502376 0.490788 0.5
6 1 0.4968 0.528245 0.5
7 1 0.503184 0.513417 0.5
ITEM: TIMESTEP
220
ITEM: NUMBER OF ATOMS
7
ITEM: BOX BOUNDS ff ff pp
-6.0000000000000000e+00 6.0000000000000000e+00
-6.0000000000000000e+00 6.0000000000000000e+00
-6.0000000000000000e+00 6.0000000000000000e+00
ITEM: ATOMS id type xs ys zs
1 2 0.425038 0.518264 0.5
2 1 0.464923 0.591433 0.5
3 1 0.511607 0.522404 0.5
4 1 0.585407 0.4837 0.5
5 1 0.502376 0.490788 0.5
6 1 0.4968 0.528245 0.5
7 1 0.503184 0.513417 0.5
ITEM: TIMESTEP
230
ITEM: NUMBER OF ATOMS
7
ITEM: BOX BOUNDS ff ff pp
-6.0000000000000000e+00 6.0000000000000000e+00
-6.0000000000000000e+00 6.0000000000000000e+00
-6.0000000000000000e+00 6.0000000000000000e+00
ITEM: ATOMS id type xs ys zs
1 2 0.425038 0.518264 0.5
2 1 0.464923 0.591433 0.5
3 1 0.511608 0.522404 0.5
4 1 0.585407 0.4837 0.5
5 1 0.502376 0.490787 0.5
6 1 0.4968 0.528245 0.5
7 1 0.503185 0.513416 0.5
ITEM: TIMESTEP
240
ITEM: NUMBER OF ATOMS
7
ITEM: BOX BOUNDS ff ff pp
-6.0000000000000000e+00 6.0000000000000000e+00
-6.0000000000000000e+00 6.0000000000000000e+00
-6.0000000000000000e+00 6.0000000000000000e+00
ITEM: ATOMS id type xs ys zs
1 2 0.425039 0.518264 0.5
2 1 0.464923 0.591433 0.5
3 1 0.511608 0.522404 0.5
4 1 0.585407 0.483699 0.5
5 1 0.502376 0.490787 0.5
6 1 0.496801 0.528245 0.5
7 1 0.503185 0.513416 0.5
ITEM: TIMESTEP
250
ITEM: NUMBER OF ATOMS
7
ITEM: BOX BOUNDS ff ff pp
-6.0000000000000000e+00 6.0000000000000000e+00
-6.0000000000000000e+00 6.0000000000000000e+00
-6.0000000000000000e+00 6.0000000000000000e+00
ITEM: ATOMS id type xs ys zs
1 2 0.425039 0.518264 0.5
2 1 0.464923 0.591432 0.5
3 1 0.511608 0.522404 0.5
4 1 0.585407 0.483699 0.5
5 1 0.502376 0.490787 0.5
6 1 0.496801 0.528245 0.5
7 1 0.503185 0.513416 0.5
ITEM: TIMESTEP
260
ITEM: NUMBER OF ATOMS
7
ITEM: BOX BOUNDS ff ff pp
-6.0000000000000000e+00 6.0000000000000000e+00
-6.0000000000000000e+00 6.0000000000000000e+00
-6.0000000000000000e+00 6.0000000000000000e+00
ITEM: ATOMS id type xs ys zs
1 2 0.425039 0.518264 0.5
2 1 0.464923 0.591432 0.5
3 1 0.511608 0.522404 0.5
4 1 0.585407 0.483699 0.5
5 1 0.502376 0.490787 0.5
6 1 0.496801 0.528245 0.5
7 1 0.503185 0.513416 0.5
ITEM: TIMESTEP
270
ITEM: NUMBER OF ATOMS
7
ITEM: BOX BOUNDS ff ff pp
-6.0000000000000000e+00 6.0000000000000000e+00
-6.0000000000000000e+00 6.0000000000000000e+00
-6.0000000000000000e+00 6.0000000000000000e+00
ITEM: ATOMS id type xs ys zs
1 2 0.425039 0.518264 0.5
2 1 0.464923 0.591432 0.5
3 1 0.511608 0.522403 0.5
4 1 0.585407 0.483699 0.5
5 1 0.502376 0.490787 0.5
6 1 0.496801 0.528244 0.5
7 1 0.503185 0.513416 0.5
ITEM: TIMESTEP
280
ITEM: NUMBER OF ATOMS
7
ITEM: BOX BOUNDS ff ff pp
-6.0000000000000000e+00 6.0000000000000000e+00
-6.0000000000000000e+00 6.0000000000000000e+00
-6.0000000000000000e+00 6.0000000000000000e+00
ITEM: ATOMS id type xs ys zs
1 2 0.425039 0.518264 0.5
2 1 0.464923 0.591432 0.5
3 1 0.511608 0.522403 0.5
4 1 0.585407 0.483698 0.5
5 1 0.502376 0.490787 0.5
6 1 0.496801 0.528244 0.5
7 1 0.503185 0.513416 0.5
ITEM: TIMESTEP
290
ITEM: NUMBER OF ATOMS
7
ITEM: BOX BOUNDS ff ff pp
-6.0000000000000000e+00 6.0000000000000000e+00
-6.0000000000000000e+00 6.0000000000000000e+00
-6.0000000000000000e+00 6.0000000000000000e+00
ITEM: ATOMS id type xs ys zs
1 2 0.425039 0.518264 0.5
2 1 0.464923 0.591432 0.5
3 1 0.511608 0.522403 0.5
4 1 0.585407 0.483698 0.5
5 1 0.502376 0.490787 0.5
6 1 0.496801 0.528244 0.5
7 1 0.503185 0.513416 0.5
ITEM: TIMESTEP
300
ITEM: NUMBER OF ATOMS
7
ITEM: BOX BOUNDS ff ff pp
-6.0000000000000000e+00 6.0000000000000000e+00
-6.0000000000000000e+00 6.0000000000000000e+00
-6.0000000000000000e+00 6.0000000000000000e+00
ITEM: ATOMS id type xs ys zs
1 2 0.425039 0.518264 0.5
2 1 0.464924 0.591432 0.5
3 1 0.511608 0.522403 0.5
4 1 0.585407 0.483698 0.5
5 1 0.502376 0.490787 0.5
6 1 0.496801 0.528244 0.5
7 1 0.503185 0.513416 0.5
ITEM: TIMESTEP
310
ITEM: NUMBER OF ATOMS
7
ITEM: BOX BOUNDS ff ff pp
-6.0000000000000000e+00 6.0000000000000000e+00
-6.0000000000000000e+00 6.0000000000000000e+00
-6.0000000000000000e+00 6.0000000000000000e+00
ITEM: ATOMS id type xs ys zs
1 2 0.425039 0.518264 0.5
2 1 0.464924 0.591432 0.5
3 1 0.511608 0.522403 0.5
4 1 0.585407 0.483698 0.5
5 1 0.502376 0.490787 0.5
6 1 0.496801 0.528244 0.5
7 1 0.503185 0.513416 0.5
ITEM: TIMESTEP
320
ITEM: NUMBER OF ATOMS
7
ITEM: BOX BOUNDS ff ff pp
-6.0000000000000000e+00 6.0000000000000000e+00
-6.0000000000000000e+00 6.0000000000000000e+00
-6.0000000000000000e+00 6.0000000000000000e+00
ITEM: ATOMS id type xs ys zs
1 2 0.425039 0.518264 0.5
2 1 0.464924 0.591432 0.5
3 1 0.511608 0.522403 0.5
4 1 0.585407 0.483698 0.5
5 1 0.502376 0.490787 0.5
6 1 0.496801 0.528244 0.5
7 1 0.503185 0.513416 0.5
ITEM: TIMESTEP
330
ITEM: NUMBER OF ATOMS
7
ITEM: BOX BOUNDS ff ff pp
-6.0000000000000000e+00 6.0000000000000000e+00
-6.0000000000000000e+00 6.0000000000000000e+00
-6.0000000000000000e+00 6.0000000000000000e+00
ITEM: ATOMS id type xs ys zs
1 2 0.425039 0.518264 0.5
2 1 0.464924 0.591432 0.5
3 1 0.511608 0.522403 0.5
4 1 0.585407 0.483698 0.5
5 1 0.502376 0.490787 0.5
6 1 0.496801 0.528244 0.5
7 1 0.503185 0.513416 0.5
ITEM: TIMESTEP
340
ITEM: NUMBER OF ATOMS
7
ITEM: BOX BOUNDS ff ff pp
-6.0000000000000000e+00 6.0000000000000000e+00
-6.0000000000000000e+00 6.0000000000000000e+00
-6.0000000000000000e+00 6.0000000000000000e+00
ITEM: ATOMS id type xs ys zs
1 2 0.425039 0.518264 0.5
2 1 0.464924 0.591432 0.5
3 1 0.511608 0.522403 0.5
4 1 0.585407 0.483698 0.5
5 1 0.502376 0.490787 0.5
6 1 0.496801 0.528244 0.5
7 1 0.503185 0.513416 0.5
ITEM: TIMESTEP
350
ITEM: NUMBER OF ATOMS
7
ITEM: BOX BOUNDS ff ff pp
-6.0000000000000000e+00 6.0000000000000000e+00
-6.0000000000000000e+00 6.0000000000000000e+00
-6.0000000000000000e+00 6.0000000000000000e+00
ITEM: ATOMS id type xs ys zs
1 2 0.425039 0.518264 0.5
2 1 0.464924 0.591432 0.5
3 1 0.511608 0.522403 0.5
4 1 0.585407 0.483698 0.5
5 1 0.502376 0.490787 0.5
6 1 0.496801 0.528244 0.5
7 1 0.503185 0.513416 0.5
ITEM: TIMESTEP
360
ITEM: NUMBER OF ATOMS
7
ITEM: BOX BOUNDS ff ff pp
-6.0000000000000000e+00 6.0000000000000000e+00
-6.0000000000000000e+00 6.0000000000000000e+00
-6.0000000000000000e+00 6.0000000000000000e+00
ITEM: ATOMS id type xs ys zs
1 2 0.425039 0.518264 0.5
2 1 0.464924 0.591432 0.5
3 1 0.511608 0.522403 0.5
4 1 0.585407 0.483698 0.5
5 1 0.502376 0.490787 0.5
6 1 0.496801 0.528244 0.5
7 1 0.503185 0.513416 0.5
ITEM: TIMESTEP
370
ITEM: NUMBER OF ATOMS
7
ITEM: BOX BOUNDS ff ff pp
-6.0000000000000000e+00 6.0000000000000000e+00
-6.0000000000000000e+00 6.0000000000000000e+00
-6.0000000000000000e+00 6.0000000000000000e+00
ITEM: ATOMS id type xs ys zs
1 2 0.425039 0.518264 0.5
2 1 0.464924 0.591432 0.5
3 1 0.511608 0.522403 0.5
4 1 0.585407 0.483698 0.5
5 1 0.502376 0.490787 0.5
6 1 0.496801 0.528244 0.5
7 1 0.503185 0.513416 0.5
ITEM: TIMESTEP
380
ITEM: NUMBER OF ATOMS
7
ITEM: BOX BOUNDS ff ff pp
-6.0000000000000000e+00 6.0000000000000000e+00
-6.0000000000000000e+00 6.0000000000000000e+00
-6.0000000000000000e+00 6.0000000000000000e+00
ITEM: ATOMS id type xs ys zs
1 2 0.425039 0.518264 0.5
2 1 0.464924 0.591432 0.5
3 1 0.511608 0.522403 0.5
4 1 0.585407 0.483698 0.5
5 1 0.502376 0.490787 0.5
6 1 0.496801 0.528244 0.5
7 1 0.503185 0.513416 0.5
ITEM: TIMESTEP
390
ITEM: NUMBER OF ATOMS
7
ITEM: BOX BOUNDS ff ff pp
-6.0000000000000000e+00 6.0000000000000000e+00
-6.0000000000000000e+00 6.0000000000000000e+00
-6.0000000000000000e+00 6.0000000000000000e+00
ITEM: ATOMS id type xs ys zs
1 2 0.425039 0.518263 0.5
2 1 0.464924 0.591432 0.5
3 1 0.511608 0.522403 0.5
4 1 0.585407 0.483698 0.5
5 1 0.502376 0.490787 0.5
6 1 0.496801 0.528244 0.5
7 1 0.503185 0.513416 0.5
ITEM: TIMESTEP
400
ITEM: NUMBER OF ATOMS
7
ITEM: BOX BOUNDS ff ff pp
-6.0000000000000000e+00 6.0000000000000000e+00
-6.0000000000000000e+00 6.0000000000000000e+00
-6.0000000000000000e+00 6.0000000000000000e+00
ITEM: ATOMS id type xs ys zs
1 2 0.425039 0.518263 0.5
2 1 0.464924 0.591432 0.5
3 1 0.511608 0.522403 0.5
4 1 0.585407 0.483698 0.5
5 1 0.502376 0.490787 0.5
6 1 0.496801 0.528244 0.5
7 1 0.503185 0.513416 0.5
ITEM: TIMESTEP
410
ITEM: NUMBER OF ATOMS
7
ITEM: BOX BOUNDS ff ff pp
-6.0000000000000000e+00 6.0000000000000000e+00
-6.0000000000000000e+00 6.0000000000000000e+00
-6.0000000000000000e+00 6.0000000000000000e+00
ITEM: ATOMS id type xs ys zs
1 2 0.425039 0.518263 0.5
2 1 0.464924 0.591432 0.5
3 1 0.511608 0.522403 0.5
4 1 0.585407 0.483697 0.5
5 1 0.502376 0.490787 0.5
6 1 0.496801 0.528244 0.5
7 1 0.503185 0.513416 0.5
ITEM: TIMESTEP
420
ITEM: NUMBER OF ATOMS
7
ITEM: BOX BOUNDS ff ff pp
-6.0000000000000000e+00 6.0000000000000000e+00
-6.0000000000000000e+00 6.0000000000000000e+00
-6.0000000000000000e+00 6.0000000000000000e+00
ITEM: ATOMS id type xs ys zs
1 2 0.425039 0.518263 0.5
2 1 0.464924 0.591432 0.5
3 1 0.511608 0.522403 0.5
4 1 0.585407 0.483697 0.5
5 1 0.502376 0.490787 0.5
6 1 0.496801 0.528244 0.5
7 1 0.503185 0.513416 0.5
ITEM: TIMESTEP
430
ITEM: NUMBER OF ATOMS
7
ITEM: BOX BOUNDS ff ff pp
-6.0000000000000000e+00 6.0000000000000000e+00
-6.0000000000000000e+00 6.0000000000000000e+00
-6.0000000000000000e+00 6.0000000000000000e+00
ITEM: ATOMS id type xs ys zs
1 2 0.425039 0.518263 0.5
2 1 0.464924 0.591432 0.5
3 1 0.511608 0.522403 0.5
4 1 0.585407 0.483697 0.5
5 1 0.502376 0.490787 0.5
6 1 0.496801 0.528244 0.5
7 1 0.503185 0.513416 0.5
ITEM: TIMESTEP
440
ITEM: NUMBER OF ATOMS
7
ITEM: BOX BOUNDS ff ff pp
-6.0000000000000000e+00 6.0000000000000000e+00
-6.0000000000000000e+00 6.0000000000000000e+00
-6.0000000000000000e+00 6.0000000000000000e+00
ITEM: ATOMS id type xs ys zs
1 2 0.425039 0.518263 0.5
2 1 0.464924 0.591432 0.5
3 1 0.511608 0.522403 0.5
4 1 0.585407 0.483697 0.5
5 1 0.502376 0.490787 0.5
6 1 0.496801 0.528244 0.5
7 1 0.503185 0.513416 0.5
ITEM: TIMESTEP
450
ITEM: NUMBER OF ATOMS
7
ITEM: BOX BOUNDS ff ff pp
-6.0000000000000000e+00 6.0000000000000000e+00
-6.0000000000000000e+00 6.0000000000000000e+00
-6.0000000000000000e+00 6.0000000000000000e+00
ITEM: ATOMS id type xs ys zs
1 2 0.425039 0.518263 0.5
2 1 0.464924 0.591432 0.5
3 1 0.511608 0.522403 0.5
4 1 0.585407 0.483697 0.5
5 1 0.502376 0.490787 0.5
6 1 0.496801 0.528244 0.5
7 1 0.503185 0.513416 0.5
ITEM: TIMESTEP
460
ITEM: NUMBER OF ATOMS
7
ITEM: BOX BOUNDS ff ff pp
-6.0000000000000000e+00 6.0000000000000000e+00
-6.0000000000000000e+00 6.0000000000000000e+00
-6.0000000000000000e+00 6.0000000000000000e+00
ITEM: ATOMS id type xs ys zs
1 2 0.425039 0.518263 0.5
2 1 0.464924 0.591432 0.5
3 1 0.511608 0.522403 0.5
4 1 0.585407 0.483697 0.5
5 1 0.502376 0.490787 0.5
6 1 0.496801 0.528244 0.5
7 1 0.503185 0.513416 0.5
ITEM: TIMESTEP
470
ITEM: NUMBER OF ATOMS
7
ITEM: BOX BOUNDS ff ff pp
-6.0000000000000000e+00 6.0000000000000000e+00
-6.0000000000000000e+00 6.0000000000000000e+00
-6.0000000000000000e+00 6.0000000000000000e+00
ITEM: ATOMS id type xs ys zs
1 2 0.425039 0.518263 0.5
2 1 0.464924 0.591432 0.5
3 1 0.511608 0.522403 0.5
4 1 0.585407 0.483697 0.5
5 1 0.502376 0.490787 0.5
6 1 0.496801 0.528244 0.5
7 1 0.503185 0.513416 0.5
ITEM: TIMESTEP
480
ITEM: NUMBER OF ATOMS
7
ITEM: BOX BOUNDS ff ff pp
-6.0000000000000000e+00 6.0000000000000000e+00
-6.0000000000000000e+00 6.0000000000000000e+00
-6.0000000000000000e+00 6.0000000000000000e+00
ITEM: ATOMS id type xs ys zs
1 2 0.425039 0.518263 0.5
2 1 0.464924 0.591432 0.5
3 1 0.511608 0.522403 0.5
4 1 0.585407 0.483697 0.5
5 1 0.502376 0.490787 0.5
6 1 0.496801 0.528244 0.5
7 1 0.503185 0.513416 0.5
ITEM: TIMESTEP
490
ITEM: NUMBER OF ATOMS
7
ITEM: BOX BOUNDS ff ff pp
-6.0000000000000000e+00 6.0000000000000000e+00
-6.0000000000000000e+00 6.0000000000000000e+00
-6.0000000000000000e+00 6.0000000000000000e+00
ITEM: ATOMS id type xs ys zs
1 2 0.425039 0.518263 0.5
2 1 0.464924 0.591432 0.5
3 1 0.511608 0.522403 0.5
4 1 0.585407 0.483697 0.5
5 1 0.502376 0.490787 0.5
6 1 0.496801 0.528244 0.5
7 1 0.503185 0.513416 0.5
ITEM: TIMESTEP
500
ITEM: NUMBER OF ATOMS
7
ITEM: BOX BOUNDS ff ff pp
-6.0000000000000000e+00 6.0000000000000000e+00
-6.0000000000000000e+00 6.0000000000000000e+00
-6.0000000000000000e+00 6.0000000000000000e+00
ITEM: ATOMS id type xs ys zs
1 2 0.425039 0.518263 0.5
2 1 0.464924 0.591432 0.5
3 1 0.511608 0.522403 0.5
4 1 0.585407 0.483697 0.5
5 1 0.502376 0.490787 0.5
6 1 0.496801 0.528244 0.5
7 1 0.503185 0.513416 0.5
ITEM: TIMESTEP
510
ITEM: NUMBER OF ATOMS
7
ITEM: BOX BOUNDS ff ff pp
-6.0000000000000000e+00 6.0000000000000000e+00
-6.0000000000000000e+00 6.0000000000000000e+00
-6.0000000000000000e+00 6.0000000000000000e+00
ITEM: ATOMS id type xs ys zs
1 2 0.425039 0.518263 0.5
2 1 0.464924 0.591432 0.5
3 1 0.511609 0.522403 0.5
4 1 0.585407 0.483697 0.5
5 1 0.502376 0.490787 0.5
6 1 0.496801 0.528244 0.5
7 1 0.503185 0.513416 0.5
ITEM: TIMESTEP
520
ITEM: NUMBER OF ATOMS
7
ITEM: BOX BOUNDS ff ff pp
-6.0000000000000000e+00 6.0000000000000000e+00
-6.0000000000000000e+00 6.0000000000000000e+00
-6.0000000000000000e+00 6.0000000000000000e+00
ITEM: ATOMS id type xs ys zs
1 2 0.425039 0.518263 0.5
2 1 0.464924 0.591432 0.5
3 1 0.511609 0.522403 0.5
4 1 0.585407 0.483697 0.5
5 1 0.502376 0.490786 0.5
6 1 0.496801 0.528244 0.5
7 1 0.503185 0.513416 0.5
ITEM: TIMESTEP
530
ITEM: NUMBER OF ATOMS
7
ITEM: BOX BOUNDS ff ff pp
-6.0000000000000000e+00 6.0000000000000000e+00
-6.0000000000000000e+00 6.0000000000000000e+00
-6.0000000000000000e+00 6.0000000000000000e+00
ITEM: ATOMS id type xs ys zs
1 2 0.425039 0.518263 0.5
2 1 0.464924 0.591432 0.5
3 1 0.511609 0.522403 0.5
4 1 0.585407 0.483697 0.5
5 1 0.502376 0.490786 0.5
6 1 0.496801 0.528244 0.5
7 1 0.503185 0.513416 0.5
ITEM: TIMESTEP
540
ITEM: NUMBER OF ATOMS
7
ITEM: BOX BOUNDS ff ff pp
-6.0000000000000000e+00 6.0000000000000000e+00
-6.0000000000000000e+00 6.0000000000000000e+00
-6.0000000000000000e+00 6.0000000000000000e+00
ITEM: ATOMS id type xs ys zs
1 2 0.425039 0.518263 0.5
2 1 0.464924 0.591432 0.5
3 1 0.511609 0.522403 0.5
4 1 0.585407 0.483697 0.5
5 1 0.502376 0.490786 0.5
6 1 0.496801 0.528244 0.5
7 1 0.503185 0.513416 0.5
ITEM: TIMESTEP
550
ITEM: NUMBER OF ATOMS
7
ITEM: BOX BOUNDS ff ff pp
-6.0000000000000000e+00 6.0000000000000000e+00
-6.0000000000000000e+00 6.0000000000000000e+00
-6.0000000000000000e+00 6.0000000000000000e+00
ITEM: ATOMS id type xs ys zs
1 2 0.425039 0.518263 0.5
2 1 0.464924 0.591432 0.5
3 1 0.511609 0.522403 0.5
4 1 0.585407 0.483696 0.5
5 1 0.502376 0.490786 0.5
6 1 0.496801 0.528244 0.5
7 1 0.503185 0.513416 0.5
ITEM: TIMESTEP
560
ITEM: NUMBER OF ATOMS
7
ITEM: BOX BOUNDS ff ff pp
-6.0000000000000000e+00 6.0000000000000000e+00
-6.0000000000000000e+00 6.0000000000000000e+00
-6.0000000000000000e+00 6.0000000000000000e+00
ITEM: ATOMS id type xs ys zs
1 2 0.425039 0.518263 0.5
2 1 0.464924 0.591432 0.5
3 1 0.511609 0.522402 0.5
4 1 0.585407 0.483696 0.5
5 1 0.502376 0.490786 0.5
6 1 0.496801 0.528244 0.5
7 1 0.503185 0.513416 0.5
ITEM: TIMESTEP
570
ITEM: NUMBER OF ATOMS
7
ITEM: BOX BOUNDS ff ff pp
-6.0000000000000000e+00 6.0000000000000000e+00
-6.0000000000000000e+00 6.0000000000000000e+00
-6.0000000000000000e+00 6.0000000000000000e+00
ITEM: ATOMS id type xs ys zs
1 2 0.425039 0.518263 0.5
2 1 0.464924 0.591432 0.5
3 1 0.511609 0.522402 0.5
4 1 0.585407 0.483696 0.5
5 1 0.502376 0.490786 0.5
6 1 0.496802 0.528244 0.5
7 1 0.503185 0.513415 0.5
ITEM: TIMESTEP
580
ITEM: NUMBER OF ATOMS
7
ITEM: BOX BOUNDS ff ff pp
-6.0000000000000000e+00 6.0000000000000000e+00
-6.0000000000000000e+00 6.0000000000000000e+00
-6.0000000000000000e+00 6.0000000000000000e+00
ITEM: ATOMS id type xs ys zs
1 2 0.425039 0.518263 0.5
2 1 0.464924 0.591432 0.5
3 1 0.511609 0.522402 0.5
4 1 0.585407 0.483696 0.5
5 1 0.502376 0.490786 0.5
6 1 0.496802 0.528244 0.5
7 1 0.503185 0.513415 0.5
ITEM: TIMESTEP
590
ITEM: NUMBER OF ATOMS
7
ITEM: BOX BOUNDS ff ff pp
-6.0000000000000000e+00 6.0000000000000000e+00
-6.0000000000000000e+00 6.0000000000000000e+00
-6.0000000000000000e+00 6.0000000000000000e+00
ITEM: ATOMS id type xs ys zs
1 2 0.425039 0.518263 0.5
2 1 0.464924 0.591432 0.5
3 1 0.511609 0.522402 0.5
4 1 0.585407 0.483696 0.5
5 1 0.502376 0.490786 0.5
6 1 0.496802 0.528244 0.5
7 1 0.503185 0.513415 0.5
ITEM: TIMESTEP
600
ITEM: NUMBER OF ATOMS
7
ITEM: BOX BOUNDS ff ff pp
-6.0000000000000000e+00 6.0000000000000000e+00
-6.0000000000000000e+00 6.0000000000000000e+00
-6.0000000000000000e+00 6.0000000000000000e+00
ITEM: ATOMS id type xs ys zs
1 2 0.425039 0.518263 0.5
2 1 0.464925 0.591431 0.5
3 1 0.511609 0.522402 0.5
4 1 0.585407 0.483696 0.5
5 1 0.502376 0.490786 0.5
6 1 0.496802 0.528243 0.5
7 1 0.503185 0.513415 0.5
ITEM: TIMESTEP
610
ITEM: NUMBER OF ATOMS
7
ITEM: BOX BOUNDS ff ff pp
-6.0000000000000000e+00 6.0000000000000000e+00
-6.0000000000000000e+00 6.0000000000000000e+00
-6.0000000000000000e+00 6.0000000000000000e+00
ITEM: ATOMS id type xs ys zs
1 2 0.425039 0.518263 0.5
2 1 0.464925 0.591431 0.5
3 1 0.511609 0.522402 0.5
4 1 0.585407 0.483696 0.5
5 1 0.502376 0.490786 0.5
6 1 0.496802 0.528243 0.5
7 1 0.503185 0.513415 0.5
ITEM: TIMESTEP
620
ITEM: NUMBER OF ATOMS
7
ITEM: BOX BOUNDS ff ff pp
-6.0000000000000000e+00 6.0000000000000000e+00
-6.0000000000000000e+00 6.0000000000000000e+00
-6.0000000000000000e+00 6.0000000000000000e+00
ITEM: ATOMS id type xs ys zs
1 2 0.425039 0.518263 0.5
2 1 0.464925 0.591431 0.5
3 1 0.511609 0.522402 0.5
4 1 0.585407 0.483696 0.5
5 1 0.502376 0.490786 0.5
6 1 0.496802 0.528243 0.5
7 1 0.503185 0.513415 0.5
ITEM: TIMESTEP
630
ITEM: NUMBER OF ATOMS
7
ITEM: BOX BOUNDS ff ff pp
-6.0000000000000000e+00 6.0000000000000000e+00
-6.0000000000000000e+00 6.0000000000000000e+00
-6.0000000000000000e+00 6.0000000000000000e+00
ITEM: ATOMS id type xs ys zs
1 2 0.425039 0.518263 0.5
2 1 0.464925 0.591431 0.5
3 1 0.511609 0.522402 0.5
4 1 0.585407 0.483696 0.5
5 1 0.502376 0.490786 0.5
6 1 0.496802 0.528243 0.5
7 1 0.503185 0.513415 0.5
ITEM: TIMESTEP
640
ITEM: NUMBER OF ATOMS
7
ITEM: BOX BOUNDS ff ff pp
-6.0000000000000000e+00 6.0000000000000000e+00
-6.0000000000000000e+00 6.0000000000000000e+00
-6.0000000000000000e+00 6.0000000000000000e+00
ITEM: ATOMS id type xs ys zs
1 2 0.425039 0.518263 0.5
2 1 0.464925 0.591431 0.5
3 1 0.511609 0.522402 0.5
4 1 0.585407 0.483696 0.5
5 1 0.502376 0.490786 0.5
6 1 0.496802 0.528243 0.5
7 1 0.503185 0.513415 0.5
ITEM: TIMESTEP
650
ITEM: NUMBER OF ATOMS
7
ITEM: BOX BOUNDS ff ff pp
-6.0000000000000000e+00 6.0000000000000000e+00
-6.0000000000000000e+00 6.0000000000000000e+00
-6.0000000000000000e+00 6.0000000000000000e+00
ITEM: ATOMS id type xs ys zs
1 2 0.425039 0.518263 0.5
2 1 0.464925 0.591431 0.5
3 1 0.511609 0.522402 0.5
4 1 0.585407 0.483696 0.5
5 1 0.502376 0.490786 0.5
6 1 0.496802 0.528243 0.5
7 1 0.503185 0.513415 0.5
ITEM: TIMESTEP
660
ITEM: NUMBER OF ATOMS
7
ITEM: BOX BOUNDS ff ff pp
-6.0000000000000000e+00 6.0000000000000000e+00
-6.0000000000000000e+00 6.0000000000000000e+00
-6.0000000000000000e+00 6.0000000000000000e+00
ITEM: ATOMS id type xs ys zs
1 2 0.425039 0.518263 0.5
2 1 0.464925 0.591431 0.5
3 1 0.511609 0.522402 0.5
4 1 0.585407 0.483696 0.5
5 1 0.502376 0.490786 0.5
6 1 0.496802 0.528243 0.5
7 1 0.503185 0.513415 0.5
ITEM: TIMESTEP
670
ITEM: NUMBER OF ATOMS
7
ITEM: BOX BOUNDS ff ff pp
-6.0000000000000000e+00 6.0000000000000000e+00
-6.0000000000000000e+00 6.0000000000000000e+00
-6.0000000000000000e+00 6.0000000000000000e+00
ITEM: ATOMS id type xs ys zs
1 2 0.425039 0.518263 0.5
2 1 0.464925 0.591431 0.5
3 1 0.511609 0.522402 0.5
4 1 0.585407 0.483696 0.5
5 1 0.502376 0.490786 0.5
6 1 0.496802 0.528243 0.5
7 1 0.503185 0.513415 0.5
ITEM: TIMESTEP
680
ITEM: NUMBER OF ATOMS
7
ITEM: BOX BOUNDS ff ff pp
-6.0000000000000000e+00 6.0000000000000000e+00
-6.0000000000000000e+00 6.0000000000000000e+00
-6.0000000000000000e+00 6.0000000000000000e+00
ITEM: ATOMS id type xs ys zs
1 2 0.425039 0.518263 0.5
2 1 0.464925 0.591431 0.5
3 1 0.511609 0.522402 0.5
4 1 0.585407 0.483696 0.5
5 1 0.502376 0.490786 0.5
6 1 0.496802 0.528243 0.5
7 1 0.503185 0.513415 0.5
ITEM: TIMESTEP
690
ITEM: NUMBER OF ATOMS
7
ITEM: BOX BOUNDS ff ff pp
-6.0000000000000000e+00 6.0000000000000000e+00
-6.0000000000000000e+00 6.0000000000000000e+00
-6.0000000000000000e+00 6.0000000000000000e+00
ITEM: ATOMS id type xs ys zs
1 2 0.425039 0.518263 0.5
2 1 0.464925 0.591431 0.5
3 1 0.511609 0.522402 0.5
4 1 0.585407 0.483696 0.5
5 1 0.502376 0.490786 0.5
6 1 0.496802 0.528243 0.5
7 1 0.503185 0.513415 0.5
ITEM: TIMESTEP
700
ITEM: NUMBER OF ATOMS
7
ITEM: BOX BOUNDS ff ff pp
-6.0000000000000000e+00 6.0000000000000000e+00
-6.0000000000000000e+00 6.0000000000000000e+00
-6.0000000000000000e+00 6.0000000000000000e+00
ITEM: ATOMS id type xs ys zs
1 2 0.425039 0.518263 0.5
2 1 0.464925 0.591431 0.5
3 1 0.511609 0.522402 0.5
4 1 0.585407 0.483695 0.5
5 1 0.502376 0.490786 0.5
6 1 0.496802 0.528243 0.5
7 1 0.503185 0.513415 0.5
ITEM: TIMESTEP
710
ITEM: NUMBER OF ATOMS
7
ITEM: BOX BOUNDS ff ff pp
-6.0000000000000000e+00 6.0000000000000000e+00