ITEM: TIMESTEP
0
ITEM: NUMBER OF ATOMS
7
ITEM: BOX BOUNDS ff ff pp
-6.0000000000000000e+00 6.0000000000000000e+00
-6.0000000000000000e+00 6.0000000000000000e+00
-6.0000000000000000e+00 6.0000000000000000e+00
ITEM: ATOMS id type xs ys zs
1 2 0.471123 0.507537 0.5
2 1 0.536327 0.535287 0.5
3 1 0.531185 0.464555 0.5
4 1 0.571432 0.401237 0.5
5 1 0.520438 0.450064 0.5
6 1 0.524361 0.476258 0.5
7 1 0.529957 0.468726 0.5
ITEM: TIMESTEP
10
ITEM: NUMBER OF ATOMS
7
ITEM: BOX BOUNDS ff ff pp
-6.0000000000000000e+00 6.0000000000000000e+00
-6.0000000000000000e+00 6.0000000000000000e+00
-6.0000000000000000e+00 6.0000000000000000e+00
ITEM: ATOMS id type xs ys zs
1 2 0.462911 0.510143 0.5
2 1 0.540272 0.544334 0.5
3 1 0.528536 0.460616 0.5
4 1 0.578708 0.392994 0.5
5 1 0.519185 0.451355 0.5
6 1 0.521696 0.475334 0.5
7 1 0.532057 0.471459 0.5
ITEM: TIMESTEP
20
ITEM: NUMBER OF ATOMS
7
ITEM: BOX BOUNDS ff ff pp
-6.0000000000000000e+00 6.0000000000000000e+00
-6.0000000000000000e+00 6.0000000000000000e+00
-6.0000000000000000e+00 6.0000000000000000e+00
ITEM: ATOMS id type xs ys zs
1 2 0.462499 0.511091 0.5
2 1 0.539533 0.543131 0.5
3 1 0.528859 0.460462 0.5
4 1 0.578939 0.393582 0.5
5 1 0.52006 0.452582 0.5
6 1 0.521764 0.474582 0.5
7 1 0.530754 0.472489 0.5
ITEM: TIMESTEP
30
ITEM: NUMBER OF ATOMS
7
ITEM: BOX BOUNDS ff ff pp
-6.0000000000000000e+00 6.0000000000000000e+00
-6.0000000000000000e+00 6.0000000000000000e+00
-6.0000000000000000e+00 6.0000000000000000e+00
ITEM: ATOMS id type xs ys zs
1 2 0.462519 0.511109 0.5
2 1 0.539465 0.543105 0.5
3 1 0.52894 0.460409 0.5
4 1 0.578927 0.393663 0.5
5 1 0.52005 0.452605 0.5
6 1 0.521708 0.474618 0.5
7 1 0.530698 0.472593 0.5
ITEM: TIMESTEP
40
ITEM: NUMBER OF ATOMS
7
ITEM: BOX BOUNDS ff ff pp
-6.0000000000000000e+00 6.0000000000000000e+00
-6.0000000000000000e+00 6.0000000000000000e+00
-6.0000000000000000e+00 6.0000000000000000e+00
ITEM: ATOMS id type xs ys zs
1 2 0.462429 0.511143 0.5
2 1 0.539362 0.543169 0.5
3 1 0.528975 0.460488 0.5
4 1 0.578965 0.393771 0.5
5 1 0.52003 0.452683 0.5
6 1 0.521631 0.474651 0.5
7 1 0.530634 0.472691 0.5
ITEM: TIMESTEP
50
ITEM: NUMBER OF ATOMS
7
ITEM: BOX BOUNDS ff ff pp
-6.0000000000000000e+00 6.0000000000000000e+00
-6.0000000000000000e+00 6.0000000000000000e+00
-6.0000000000000000e+00 6.0000000000000000e+00
ITEM: ATOMS id type xs ys zs
1 2 0.462346 0.511157 0.5
2 1 0.539248 0.543256 0.5
3 1 0.528959 0.460568 0.5
4 1 0.578993 0.393886 0.5
5 1 0.52001 0.452755 0.5
6 1 0.521585 0.474716 0.5
7 1 0.530589 0.472776 0.5
ITEM: TIMESTEP
60
ITEM: NUMBER OF ATOMS
7
ITEM: BOX BOUNDS ff ff pp
-6.0000000000000000e+00 6.0000000000000000e+00
-6.0000000000000000e+00 6.0000000000000000e+00
-6.0000000000000000e+00 6.0000000000000000e+00
ITEM: ATOMS id type xs ys zs
1 2 0.462319 0.511162 0.5
2 1 0.539211 0.543287 0.5
3 1 0.528951 0.460594 0.5
4 1 0.579002 0.393926 0.5
5 1 0.520003 0.452779 0.5
6 1 0.521571 0.474739 0.5
7 1 0.530575 0.472803 0.5
ITEM: TIMESTEP
70
ITEM: NUMBER OF ATOMS
7
ITEM: BOX BOUNDS ff ff pp
-6.0000000000000000e+00 6.0000000000000000e+00
-6.0000000000000000e+00 6.0000000000000000e+00
-6.0000000000000000e+00 6.0000000000000000e+00
ITEM: ATOMS id type xs ys zs
1 2 0.462265 0.511171 0.5
2 1 0.539136 0.543346 0.5
3 1 0.528934 0.460647 0.5
4 1 0.57902 0.394005 0.5
5 1 0.519988 0.452826 0.5
6 1 0.521544 0.474787 0.5
7 1 0.530546 0.472858 0.5
ITEM: TIMESTEP
80
ITEM: NUMBER OF ATOMS
7
ITEM: BOX BOUNDS ff ff pp
-6.0000000000000000e+00 6.0000000000000000e+00
-6.0000000000000000e+00 6.0000000000000000e+00
-6.0000000000000000e+00 6.0000000000000000e+00
ITEM: ATOMS id type xs ys zs
1 2 0.462197 0.511182 0.5
2 1 0.53904 0.543423 0.5
3 1 0.528913 0.460714 0.5
4 1 0.579041 0.394105 0.5
5 1 0.51997 0.452886 0.5
6 1 0.52151 0.474848 0.5
7 1 0.530511 0.472927 0.5
ITEM: TIMESTEP
90
ITEM: NUMBER OF ATOMS
7
ITEM: BOX BOUNDS ff ff pp
-6.0000000000000000e+00 6.0000000000000000e+00
-6.0000000000000000e+00 6.0000000000000000e+00
-6.0000000000000000e+00 6.0000000000000000e+00
ITEM: ATOMS id type xs ys zs
1 2 0.462184 0.511184 0.5
2 1 0.539022 0.543437 0.5
3 1 0.528909 0.460727 0.5
4 1 0.579044 0.394123 0.5
5 1 0.519966 0.452897 0.5
6 1 0.521504 0.474859 0.5
7 1 0.530504 0.47294 0.5
ITEM: TIMESTEP
100
ITEM: NUMBER OF ATOMS
7
ITEM: BOX BOUNDS ff ff pp
-6.0000000000000000e+00 6.0000000000000000e+00
-6.0000000000000000e+00 6.0000000000000000e+00
-6.0000000000000000e+00 6.0000000000000000e+00
ITEM: ATOMS id type xs ys zs
1 2 0.462155 0.511188 0.5
2 1 0.538981 0.54347 0.5
3 1 0.5289 0.460755 0.5
4 1 0.579052 0.394165 0.5
5 1 0.519959 0.452923 0.5
6 1 0.52149 0.474885 0.5
7 1 0.530489 0.472969 0.5
ITEM: TIMESTEP
110
ITEM: NUMBER OF ATOMS
7
ITEM: BOX BOUNDS ff ff pp
-6.0000000000000000e+00 6.0000000000000000e+00
-6.0000000000000000e+00 6.0000000000000000e+00
-6.0000000000000000e+00 6.0000000000000000e+00
ITEM: ATOMS id type xs ys zs
1 2 0.462112 0.511194 0.5
2 1 0.53892 0.543518 0.5
3 1 0.528889 0.460798 0.5
4 1 0.579063 0.394224 0.5
5 1 0.519949 0.452961 0.5
6 1 0.521471 0.474923 0.5
7 1 0.530468 0.473013 0.5
ITEM: TIMESTEP
120
ITEM: NUMBER OF ATOMS
7
ITEM: BOX BOUNDS ff ff pp
-6.0000000000000000e+00 6.0000000000000000e+00
-6.0000000000000000e+00 6.0000000000000000e+00
-6.0000000000000000e+00 6.0000000000000000e+00
ITEM: ATOMS id type xs ys zs
1 2 0.462098 0.511195 0.5
2 1 0.538899 0.543535 0.5
3 1 0.528886 0.460812 0.5
4 1 0.579066 0.394243 0.5
5 1 0.519945 0.452974 0.5
6 1 0.521465 0.474935 0.5
7 1 0.530461 0.473028 0.5
ITEM: TIMESTEP
130
ITEM: NUMBER OF ATOMS
7
ITEM: BOX BOUNDS ff ff pp
-6.0000000000000000e+00 6.0000000000000000e+00
-6.0000000000000000e+00 6.0000000000000000e+00
-6.0000000000000000e+00 6.0000000000000000e+00
ITEM: ATOMS id type xs ys zs
1 2 0.462084 0.511196 0.5
2 1 0.53888 0.54355 0.5
3 1 0.528884 0.460825 0.5
4 1 0.579068 0.394259 0.5
5 1 0.519943 0.452985 0.5
6 1 0.52146 0.474947 0.5
7 1 0.530455 0.473041 0.5
ITEM: TIMESTEP
140
ITEM: NUMBER OF ATOMS
7
ITEM: BOX BOUNDS ff ff pp
-6.0000000000000000e+00 6.0000000000000000e+00
-6.0000000000000000e+00 6.0000000000000000e+00
-6.0000000000000000e+00 6.0000000000000000e+00
ITEM: ATOMS id type xs ys zs
1 2 0.462067 0.511196 0.5
2 1 0.538855 0.543569 0.5
3 1 0.528882 0.460842 0.5
4 1 0.579069 0.394278 0.5
5 1 0.51994 0.453 0.5
6 1 0.521455 0.474961 0.5
7 1 0.530447 0.473059 0.5
ITEM: TIMESTEP
150
ITEM: NUMBER OF ATOMS
7
ITEM: BOX BOUNDS ff ff pp
-6.0000000000000000e+00 6.0000000000000000e+00
-6.0000000000000000e+00 6.0000000000000000e+00
-6.0000000000000000e+00 6.0000000000000000e+00
ITEM: ATOMS id type xs ys zs
1 2 0.462062 0.511196 0.5
2 1 0.538847 0.543576 0.5
3 1 0.528882 0.460847 0.5
4 1 0.579069 0.394283 0.5
5 1 0.51994 0.453005 0.5
6 1 0.521453 0.474966 0.5
7 1 0.530445 0.473065 0.5
ITEM: TIMESTEP
160
ITEM: NUMBER OF ATOMS
7
ITEM: BOX BOUNDS ff ff pp
-6.0000000000000000e+00 6.0000000000000000e+00
-6.0000000000000000e+00 6.0000000000000000e+00
-6.0000000000000000e+00 6.0000000000000000e+00
ITEM: ATOMS id type xs ys zs
1 2 0.462056 0.511196 0.5
2 1 0.538838 0.543583 0.5
3 1 0.528883 0.460853 0.5
4 1 0.579068 0.394288 0.5
5 1 0.519939 0.45301 0.5
6 1 0.521453 0.474971 0.5
7 1 0.530442 0.473071 0.5
ITEM: TIMESTEP
170
ITEM: NUMBER OF ATOMS
7
ITEM: BOX BOUNDS ff ff pp
-6.0000000000000000e+00 6.0000000000000000e+00
-6.0000000000000000e+00 6.0000000000000000e+00
-6.0000000000000000e+00 6.0000000000000000e+00
ITEM: ATOMS id type xs ys zs
1 2 0.462052 0.511195 0.5
2 1 0.538832 0.543587 0.5
3 1 0.528884 0.460856 0.5
4 1 0.579067 0.39429 0.5
5 1 0.519939 0.453013 0.5
6 1 0.521453 0.474973 0.5
7 1 0.530441 0.473074 0.5
ITEM: TIMESTEP
180
ITEM: NUMBER OF ATOMS
7
ITEM: BOX BOUNDS ff ff pp
-6.0000000000000000e+00 6.0000000000000000e+00
-6.0000000000000000e+00 6.0000000000000000e+00
-6.0000000000000000e+00 6.0000000000000000e+00
ITEM: ATOMS id type xs ys zs
1 2 0.462047 0.511194 0.5
2 1 0.538823 0.543593 0.5
3 1 0.528886 0.460861 0.5
4 1 0.579065 0.394292 0.5
5 1 0.51994 0.453018 0.5
6 1 0.521453 0.474977 0.5
7 1 0.53044 0.47308 0.5
ITEM: TIMESTEP
190
ITEM: NUMBER OF ATOMS
7
ITEM: BOX BOUNDS ff ff pp
-6.0000000000000000e+00 6.0000000000000000e+00
-6.0000000000000000e+00 6.0000000000000000e+00
-6.0000000000000000e+00 6.0000000000000000e+00
ITEM: ATOMS id type xs ys zs
1 2 0.462045 0.511193 0.5
2 1 0.538821 0.543595 0.5
3 1 0.528887 0.460863 0.5
4 1 0.579064 0.394292 0.5
5 1 0.51994 0.453019 0.5
6 1 0.521454 0.474978 0.5
7 1 0.530439 0.473081 0.5
ITEM: TIMESTEP
200
ITEM: NUMBER OF ATOMS
7
ITEM: BOX BOUNDS ff ff pp
-6.0000000000000000e+00 6.0000000000000000e+00
-6.0000000000000000e+00 6.0000000000000000e+00
-6.0000000000000000e+00 6.0000000000000000e+00
ITEM: ATOMS id type xs ys zs
1 2 0.462042 0.511192 0.5
2 1 0.538816 0.543598 0.5
3 1 0.528889 0.460865 0.5
4 1 0.579062 0.394291 0.5
5 1 0.51994 0.453021 0.5
6 1 0.521455 0.474981 0.5
7 1 0.530439 0.473084 0.5
ITEM: TIMESTEP
210
ITEM: NUMBER OF ATOMS
7
ITEM: BOX BOUNDS ff ff pp
-6.0000000000000000e+00 6.0000000000000000e+00
-6.0000000000000000e+00 6.0000000000000000e+00
-6.0000000000000000e+00 6.0000000000000000e+00
ITEM: ATOMS id type xs ys zs
1 2 0.462038 0.51119 0.5
2 1 0.538808 0.543604 0.5
3 1 0.528893 0.460869 0.5
4 1 0.579058 0.394289 0.5
5 1 0.519942 0.453025 0.5
6 1 0.521457 0.474983 0.5
7 1 0.530438 0.473089 0.5
ITEM: TIMESTEP
220
ITEM: NUMBER OF ATOMS
7
ITEM: BOX BOUNDS ff ff pp
-6.0000000000000000e+00 6.0000000000000000e+00
-6.0000000000000000e+00 6.0000000000000000e+00
-6.0000000000000000e+00 6.0000000000000000e+00
ITEM: ATOMS id type xs ys zs
1 2 0.462037 0.511189 0.5
2 1 0.538806 0.543605 0.5
3 1 0.528894 0.46087 0.5
4 1 0.579056 0.394288 0.5
5 1 0.519942 0.453026 0.5
6 1 0.521458 0.474984 0.5
7 1 0.530438 0.47309 0.5
ITEM: TIMESTEP
230
ITEM: NUMBER OF ATOMS
7
ITEM: BOX BOUNDS ff ff pp
-6.0000000000000000e+00 6.0000000000000000e+00
-6.0000000000000000e+00 6.0000000000000000e+00
-6.0000000000000000e+00 6.0000000000000000e+00
ITEM: ATOMS id type xs ys zs
1 2 0.462035 0.511188 0.5
2 1 0.538803 0.543607 0.5
3 1 0.528896 0.460872 0.5
4 1 0.579054 0.394287 0.5
5 1 0.519943 0.453027 0.5
6 1 0.521459 0.474985 0.5
7 1 0.530438 0.473092 0.5
ITEM: TIMESTEP
240
ITEM: NUMBER OF ATOMS
7
ITEM: BOX BOUNDS ff ff pp
-6.0000000000000000e+00 6.0000000000000000e+00
-6.0000000000000000e+00 6.0000000000000000e+00
-6.0000000000000000e+00 6.0000000000000000e+00
ITEM: ATOMS id type xs ys zs
1 2 0.462033 0.511186 0.5
2 1 0.538799 0.54361 0.5
3 1 0.528899 0.460873 0.5
4 1 0.579051 0.394284 0.5
5 1 0.519944 0.453028 0.5
6 1 0.521462 0.474986 0.5
7 1 0.530438 0.473094 0.5
ITEM: TIMESTEP
250
ITEM: NUMBER OF ATOMS
7
ITEM: BOX BOUNDS ff ff pp
-6.0000000000000000e+00 6.0000000000000000e+00
-6.0000000000000000e+00 6.0000000000000000e+00
-6.0000000000000000e+00 6.0000000000000000e+00
ITEM: ATOMS id type xs ys zs
1 2 0.462031 0.511184 0.5
2 1 0.538795 0.543613 0.5
3 1 0.528903 0.460875 0.5
4 1 0.579048 0.394281 0.5
5 1 0.519946 0.45303 0.5
6 1 0.521464 0.474987 0.5
7 1 0.530438 0.473096 0.5
ITEM: TIMESTEP
260
ITEM: NUMBER OF ATOMS
7
ITEM: BOX BOUNDS ff ff pp
-6.0000000000000000e+00 6.0000000000000000e+00
-6.0000000000000000e+00 6.0000000000000000e+00
-6.0000000000000000e+00 6.0000000000000000e+00
ITEM: ATOMS id type xs ys zs
1 2 0.46203 0.511183 0.5
2 1 0.538793 0.543614 0.5
3 1 0.528905 0.460876 0.5
4 1 0.579046 0.394279 0.5
5 1 0.519946 0.453031 0.5
6 1 0.521465 0.474988 0.5
7 1 0.530438 0.473097 0.5
ITEM: TIMESTEP
270
ITEM: NUMBER OF ATOMS
7
ITEM: BOX BOUNDS ff ff pp
-6.0000000000000000e+00 6.0000000000000000e+00
-6.0000000000000000e+00 6.0000000000000000e+00
-6.0000000000000000e+00 6.0000000000000000e+00
ITEM: ATOMS id type xs ys zs
1 2 0.462028 0.511182 0.5
2 1 0.53879 0.543616 0.5
3 1 0.528908 0.460877 0.5
4 1 0.579043 0.394276 0.5
5 1 0.519948 0.453032 0.5
6 1 0.521468 0.474988 0.5
7 1 0.530438 0.473099 0.5
ITEM: TIMESTEP
280
ITEM: NUMBER OF ATOMS
7
ITEM: BOX BOUNDS ff ff pp
-6.0000000000000000e+00 6.0000000000000000e+00
-6.0000000000000000e+00 6.0000000000000000e+00
-6.0000000000000000e+00 6.0000000000000000e+00
ITEM: ATOMS id type xs ys zs
1 2 0.462027 0.51118 0.5
2 1 0.538787 0.543618 0.5
3 1 0.52891 0.460878 0.5
4 1 0.57904 0.394273 0.5
5 1 0.519949 0.453033 0.5
6 1 0.52147 0.474989 0.5
7 1 0.530439 0.4731 0.5
ITEM: TIMESTEP
290
ITEM: NUMBER OF ATOMS
7
ITEM: BOX BOUNDS ff ff pp
-6.0000000000000000e+00 6.0000000000000000e+00
-6.0000000000000000e+00 6.0000000000000000e+00
-6.0000000000000000e+00 6.0000000000000000e+00
ITEM: ATOMS id type xs ys zs
1 2 0.462026 0.511179 0.5
2 1 0.538785 0.543619 0.5
3 1 0.528912 0.460879 0.5
4 1 0.579038 0.394271 0.5
5 1 0.519949 0.453034 0.5
6 1 0.521471 0.47499 0.5
7 1 0.530439 0.473101 0.5
ITEM: TIMESTEP
300
ITEM: NUMBER OF ATOMS
7
ITEM: BOX BOUNDS ff ff pp
-6.0000000000000000e+00 6.0000000000000000e+00
-6.0000000000000000e+00 6.0000000000000000e+00
-6.0000000000000000e+00 6.0000000000000000e+00
ITEM: ATOMS id type xs ys zs
1 2 0.462024 0.511177 0.5
2 1 0.538782 0.543621 0.5
3 1 0.528915 0.46088 0.5
4 1 0.579035 0.394267 0.5
5 1 0.519951 0.453035 0.5
6 1 0.521473 0.47499 0.5
7 1 0.530439 0.473103 0.5
ITEM: TIMESTEP
310
ITEM: NUMBER OF ATOMS
7
ITEM: BOX BOUNDS ff ff pp
-6.0000000000000000e+00 6.0000000000000000e+00
-6.0000000000000000e+00 6.0000000000000000e+00
-6.0000000000000000e+00 6.0000000000000000e+00
ITEM: ATOMS id type xs ys zs
1 2 0.462023 0.511176 0.5
2 1 0.53878 0.543622 0.5
3 1 0.528918 0.460881 0.5
4 1 0.579033 0.394265 0.5
5 1 0.519952 0.453035 0.5
6 1 0.521475 0.474991 0.5
7 1 0.530439 0.473104 0.5
ITEM: TIMESTEP
320
ITEM: NUMBER OF ATOMS
7
ITEM: BOX BOUNDS ff ff pp
-6.0000000000000000e+00 6.0000000000000000e+00
-6.0000000000000000e+00 6.0000000000000000e+00
-6.0000000000000000e+00 6.0000000000000000e+00
ITEM: ATOMS id type xs ys zs
1 2 0.462022 0.511175 0.5
2 1 0.538778 0.543624 0.5
3 1 0.52892 0.460882 0.5
4 1 0.579031 0.394263 0.5
5 1 0.519952 0.453036 0.5
6 1 0.521476 0.474991 0.5
7 1 0.53044 0.473105 0.5
ITEM: TIMESTEP
330
ITEM: NUMBER OF ATOMS
7
ITEM: BOX BOUNDS ff ff pp
-6.0000000000000000e+00 6.0000000000000000e+00
-6.0000000000000000e+00 6.0000000000000000e+00
-6.0000000000000000e+00 6.0000000000000000e+00
ITEM: ATOMS id type xs ys zs
1 2 0.462021 0.511173 0.5
2 1 0.538775 0.543626 0.5
3 1 0.528923 0.460883 0.5
4 1 0.579027 0.394259 0.5
5 1 0.519954 0.453037 0.5
6 1 0.521479 0.474992 0.5
7 1 0.53044 0.473107 0.5
ITEM: TIMESTEP
340
ITEM: NUMBER OF ATOMS
7
ITEM: BOX BOUNDS ff ff pp
-6.0000000000000000e+00 6.0000000000000000e+00
-6.0000000000000000e+00 6.0000000000000000e+00
-6.0000000000000000e+00 6.0000000000000000e+00
ITEM: ATOMS id type xs ys zs
1 2 0.462019 0.511172 0.5
2 1 0.538772 0.543627 0.5
3 1 0.528925 0.460884 0.5
4 1 0.579025 0.394257 0.5
5 1 0.519955 0.453038 0.5
6 1 0.521481 0.474992 0.5
7 1 0.53044 0.473108 0.5
ITEM: TIMESTEP
350
ITEM: NUMBER OF ATOMS
7
ITEM: BOX BOUNDS ff ff pp
-6.0000000000000000e+00 6.0000000000000000e+00
-6.0000000000000000e+00 6.0000000000000000e+00
-6.0000000000000000e+00 6.0000000000000000e+00
ITEM: ATOMS id type xs ys zs
1 2 0.462018 0.511171 0.5
2 1 0.538771 0.543628 0.5
3 1 0.528927 0.460885 0.5
4 1 0.579023 0.394254 0.5
5 1 0.519956 0.453038 0.5
6 1 0.521482 0.474992 0.5
7 1 0.53044 0.473109 0.5
ITEM: TIMESTEP
360
ITEM: NUMBER OF ATOMS
7
ITEM: BOX BOUNDS ff ff pp
-6.0000000000000000e+00 6.0000000000000000e+00
-6.0000000000000000e+00 6.0000000000000000e+00
-6.0000000000000000e+00 6.0000000000000000e+00
ITEM: ATOMS id type xs ys zs
1 2 0.462017 0.511169 0.5
2 1 0.538768 0.54363 0.5
3 1 0.52893 0.460886 0.5
4 1 0.57902 0.394251 0.5
5 1 0.519957 0.453039 0.5
6 1 0.521484 0.474993 0.5
7 1 0.530441 0.47311 0.5
ITEM: TIMESTEP
370
ITEM: NUMBER OF ATOMS
7
ITEM: BOX BOUNDS ff ff pp
-6.0000000000000000e+00 6.0000000000000000e+00
-6.0000000000000000e+00 6.0000000000000000e+00
-6.0000000000000000e+00 6.0000000000000000e+00
ITEM: ATOMS id type xs ys zs
1 2 0.462016 0.511167 0.5
2 1 0.538765 0.543632 0.5
3 1 0.528933 0.460887 0.5
4 1 0.579017 0.394248 0.5
5 1 0.519958 0.45304 0.5
6 1 0.521486 0.474994 0.5
7 1 0.530441 0.473111 0.5
ITEM: TIMESTEP
380
ITEM: NUMBER OF ATOMS
7
ITEM: BOX BOUNDS ff ff pp
-6.0000000000000000e+00 6.0000000000000000e+00
-6.0000000000000000e+00 6.0000000000000000e+00
-6.0000000000000000e+00 6.0000000000000000e+00
ITEM: ATOMS id type xs ys zs
1 2 0.462015 0.511166 0.5
2 1 0.538763 0.543633 0.5
3 1 0.528935 0.460888 0.5
4 1 0.579015 0.394246 0.5
5 1 0.519959 0.453041 0.5
6 1 0.521488 0.474994 0.5
7 1 0.530441 0.473112 0.5
ITEM: TIMESTEP
390
ITEM: NUMBER OF ATOMS
7
ITEM: BOX BOUNDS ff ff pp
-6.0000000000000000e+00 6.0000000000000000e+00
-6.0000000000000000e+00 6.0000000000000000e+00
-6.0000000000000000e+00 6.0000000000000000e+00
ITEM: ATOMS id type xs ys zs
1 2 0.462013 0.511165 0.5
2 1 0.53876 0.543635 0.5
3 1 0.528938 0.460889 0.5
4 1 0.579012 0.394243 0.5
5 1 0.51996 0.453042 0.5
6 1 0.52149 0.474994 0.5
7 1 0.530442 0.473114 0.5
ITEM: TIMESTEP
400
ITEM: NUMBER OF ATOMS
7
ITEM: BOX BOUNDS ff ff pp
-6.0000000000000000e+00 6.0000000000000000e+00
-6.0000000000000000e+00 6.0000000000000000e+00
-6.0000000000000000e+00 6.0000000000000000e+00
ITEM: ATOMS id type xs ys zs
1 2 0.462012 0.511163 0.5
2 1 0.538758 0.543636 0.5
3 1 0.52894 0.46089 0.5
4 1 0.57901 0.39424 0.5
5 1 0.519961 0.453043 0.5
6 1 0.521492 0.474995 0.5
7 1 0.530442 0.473115 0.5
ITEM: TIMESTEP
410
ITEM: NUMBER OF ATOMS
7
ITEM: BOX BOUNDS ff ff pp
-6.0000000000000000e+00 6.0000000000000000e+00
-6.0000000000000000e+00 6.0000000000000000e+00
-6.0000000000000000e+00 6.0000000000000000e+00
ITEM: ATOMS id type xs ys zs
1 2 0.462011 0.511162 0.5
2 1 0.538756 0.543637 0.5
3 1 0.528942 0.46089 0.5
4 1 0.579008 0.394238 0.5
5 1 0.519962 0.453043 0.5
6 1 0.521493 0.474995 0.5
7 1 0.530442 0.473116 0.5
ITEM: TIMESTEP
420
ITEM: NUMBER OF ATOMS
7
ITEM: BOX BOUNDS ff ff pp
-6.0000000000000000e+00 6.0000000000000000e+00
-6.0000000000000000e+00 6.0000000000000000e+00
-6.0000000000000000e+00 6.0000000000000000e+00
ITEM: ATOMS id type xs ys zs
1 2 0.46201 0.511161 0.5
2 1 0.538753 0.543639 0.5
3 1 0.528945 0.460891 0.5
4 1 0.579005 0.394235 0.5
5 1 0.519963 0.453044 0.5
6 1 0.521495 0.474996 0.5
7 1 0.530442 0.473117 0.5
ITEM: TIMESTEP
430
ITEM: NUMBER OF ATOMS
7
ITEM: BOX BOUNDS ff ff pp
-6.0000000000000000e+00 6.0000000000000000e+00
-6.0000000000000000e+00 6.0000000000000000e+00
-6.0000000000000000e+00 6.0000000000000000e+00
ITEM: ATOMS id type xs ys zs
1 2 0.462009 0.511159 0.5
2 1 0.53875 0.543641 0.5
3 1 0.528948 0.460893 0.5
4 1 0.579002 0.394231 0.5
5 1 0.519964 0.453045 0.5
6 1 0.521498 0.474996 0.5
7 1 0.530443 0.473119 0.5
ITEM: TIMESTEP
440
ITEM: NUMBER OF ATOMS
7
ITEM: BOX BOUNDS ff ff pp
-6.0000000000000000e+00 6.0000000000000000e+00
-6.0000000000000000e+00 6.0000000000000000e+00
-6.0000000000000000e+00 6.0000000000000000e+00
ITEM: ATOMS id type xs ys zs
1 2 0.462008 0.511158 0.5
2 1 0.538749 0.543642 0.5
3 1 0.52895 0.460893 0.5
4 1 0.579 0.394229 0.5
5 1 0.519965 0.453046 0.5
6 1 0.521499 0.474997 0.5
7 1 0.530443 0.473119 0.5
ITEM: TIMESTEP
450
ITEM: NUMBER OF ATOMS
7
ITEM: BOX BOUNDS ff ff pp
-6.0000000000000000e+00 6.0000000000000000e+00
-6.0000000000000000e+00 6.0000000000000000e+00
-6.0000000000000000e+00 6.0000000000000000e+00
ITEM: ATOMS id type xs ys zs
1 2 0.462007 0.511156 0.5
2 1 0.538746 0.543644 0.5
3 1 0.528953 0.460894 0.5
4 1 0.578997 0.394226 0.5
5 1 0.519966 0.453047 0.5
6 1 0.521501 0.474997 0.5
7 1 0.530443 0.473121 0.5
ITEM: TIMESTEP
460
ITEM: NUMBER OF ATOMS
7
ITEM: BOX BOUNDS ff ff pp
-6.0000000000000000e+00 6.0000000000000000e+00
-6.0000000000000000e+00 6.0000000000000000e+00
-6.0000000000000000e+00 6.0000000000000000e+00
ITEM: ATOMS id type xs ys zs
1 2 0.462005 0.511155 0.5
2 1 0.538744 0.543645 0.5
3 1 0.528955 0.460895 0.5
4 1 0.578995 0.394224 0.5
5 1 0.519967 0.453047 0.5
6 1 0.521503 0.474998 0.5
7 1 0.530443 0.473122 0.5
ITEM: TIMESTEP
470
ITEM: NUMBER OF ATOMS
7
ITEM: BOX BOUNDS ff ff pp
-6.0000000000000000e+00 6.0000000000000000e+00
-6.0000000000000000e+00 6.0000000000000000e+00
-6.0000000000000000e+00 6.0000000000000000e+00
ITEM: ATOMS id type xs ys zs
1 2 0.462005 0.511154 0.5
2 1 0.538742 0.543646 0.5
3 1 0.528957 0.460896 0.5
4 1 0.578993 0.394222 0.5
5 1 0.519968 0.453048 0.5
6 1 0.521504 0.474998 0.5
7 1 0.530444 0.473123 0.5
ITEM: TIMESTEP
480
ITEM: NUMBER OF ATOMS
7
ITEM: BOX BOUNDS ff ff pp
-6.0000000000000000e+00 6.0000000000000000e+00
-6.0000000000000000e+00 6.0000000000000000e+00
-6.0000000000000000e+00 6.0000000000000000e+00
ITEM: ATOMS id type xs ys zs
1 2 0.462003 0.511152 0.5
2 1 0.538739 0.543648 0.5
3 1 0.52896 0.460897 0.5
4 1 0.57899 0.394218 0.5
5 1 0.519969 0.453049 0.5
6 1 0.521506 0.474999 0.5
7 1 0.530444 0.473124 0.5
ITEM: TIMESTEP
490
ITEM: NUMBER OF ATOMS
7
ITEM: BOX BOUNDS ff ff pp
-6.0000000000000000e+00 6.0000000000000000e+00
-6.0000000000000000e+00 6.0000000000000000e+00
-6.0000000000000000e+00 6.0000000000000000e+00
ITEM: ATOMS id type xs ys zs
1 2 0.462002 0.511151 0.5
2 1 0.538737 0.543649 0.5
3 1 0.528962 0.460897 0.5
4 1 0.578988 0.394216 0.5
5 1 0.51997 0.453049 0.5
6 1 0.521508 0.474999 0.5
7 1 0.530444 0.473125 0.5
ITEM: TIMESTEP
500
ITEM: NUMBER OF ATOMS
7
ITEM: BOX BOUNDS ff ff pp
-6.0000000000000000e+00 6.0000000000000000e+00
-6.0000000000000000e+00 6.0000000000000000e+00
-6.0000000000000000e+00 6.0000000000000000e+00
ITEM: ATOMS id type xs ys zs
1 2 0.462001 0.51115 0.5
2 1 0.538735 0.543651 0.5
3 1 0.528964 0.460898 0.5
4 1 0.578986 0.394214 0.5
5 1 0.519971 0.45305 0.5
6 1 0.521509 0.474999 0.5
7 1 0.530444 0.473126 0.5
ITEM: TIMESTEP
510
ITEM: NUMBER OF ATOMS
7
ITEM: BOX BOUNDS ff ff pp
-6.0000000000000000e+00 6.0000000000000000e+00
-6.0000000000000000e+00 6.0000000000000000e+00
-6.0000000000000000e+00 6.0000000000000000e+00
ITEM: ATOMS id type xs ys zs
1 2 0.462 0.511148 0.5
2 1 0.538732 0.543652 0.5
3 1 0.528967 0.460899 0.5
4 1 0.578983 0.394211 0.5
5 1 0.519972 0.453051 0.5
6 1 0.521512 0.475 0.5
7 1 0.530445 0.473128 0.5
ITEM: TIMESTEP
520
ITEM: NUMBER OF ATOMS
7
ITEM: BOX BOUNDS ff ff pp
-6.0000000000000000e+00 6.0000000000000000e+00
-6.0000000000000000e+00 6.0000000000000000e+00
-6.0000000000000000e+00 6.0000000000000000e+00
ITEM: ATOMS id type xs ys zs
1 2 0.461999 0.511147 0.5
2 1 0.538731 0.543654 0.5
3 1 0.528969 0.4609 0.5
4 1 0.578981 0.394209 0.5
5 1 0.519973 0.453052 0.5
6 1 0.521513 0.475 0.5
7 1 0.530445 0.473128 0.5
ITEM: TIMESTEP
530
ITEM: NUMBER OF ATOMS
7
ITEM: BOX BOUNDS ff ff pp
-6.0000000000000000e+00 6.0000000000000000e+00
-6.0000000000000000e+00 6.0000000000000000e+00
-6.0000000000000000e+00 6.0000000000000000e+00
ITEM: ATOMS id type xs ys zs
1 2 0.461998 0.511146 0.5
2 1 0.538729 0.543655 0.5
3 1 0.528971 0.460901 0.5
4 1 0.578979 0.394206 0.5
5 1 0.519973 0.453052 0.5
6 1 0.521515 0.475001 0.5
7 1 0.530445 0.473129 0.5
ITEM: TIMESTEP
540
ITEM: NUMBER OF ATOMS
7
ITEM: BOX BOUNDS ff ff pp
-6.0000000000000000e+00 6.0000000000000000e+00
-6.0000000000000000e+00 6.0000000000000000e+00
-6.0000000000000000e+00 6.0000000000000000e+00
ITEM: ATOMS id type xs ys zs
1 2 0.461997 0.511145 0.5
2 1 0.538726 0.543657 0.5
3 1 0.528974 0.460902 0.5
4 1 0.578976 0.394203 0.5
5 1 0.519975 0.453053 0.5
6 1 0.521517 0.475001 0.5
7 1 0.530445 0.473131 0.5
ITEM: TIMESTEP
550
ITEM: NUMBER OF ATOMS
7
ITEM: BOX BOUNDS ff ff pp
-6.0000000000000000e+00 6.0000000000000000e+00
-6.0000000000000000e+00 6.0000000000000000e+00
-6.0000000000000000e+00 6.0000000000000000e+00
ITEM: ATOMS id type xs ys zs
1 2 0.461996 0.511143 0.5
2 1 0.538723 0.543658 0.5
3 1 0.528976 0.460903 0.5
4 1 0.578974 0.3942 0.5
5 1 0.519976 0.453054 0.5
6 1 0.521519 0.475002 0.5
7 1 0.530446 0.473132 0.5
ITEM: TIMESTEP
560
ITEM: NUMBER OF ATOMS
7
ITEM: BOX BOUNDS ff ff pp
-6.0000000000000000e+00 6.0000000000000000e+00
-6.0000000000000000e+00 6.0000000000000000e+00
-6.0000000000000000e+00 6.0000000000000000e+00
ITEM: ATOMS id type xs ys zs
1 2 0.461995 0.511142 0.5
2 1 0.538722 0.543659 0.5
3 1 0.528978 0.460903 0.5
4 1 0.578972 0.394198 0.5
5 1 0.519976 0.453055 0.5
6 1 0.52152 0.475002 0.5
7 1 0.530446 0.473133 0.5
ITEM: TIMESTEP
570
ITEM: NUMBER OF ATOMS
7
ITEM: BOX BOUNDS ff ff pp
-6.0000000000000000e+00 6.0000000000000000e+00
-6.0000000000000000e+00 6.0000000000000000e+00
-6.0000000000000000e+00 6.0000000000000000e+00
ITEM: ATOMS id type xs ys zs
1 2 0.461993 0.511141 0.5
2 1 0.538719 0.543661 0.5
3 1 0.528981 0.460905 0.5
4 1 0.578969 0.394195 0.5
5 1 0.519978 0.453056 0.5
6 1 0.521522 0.475003 0.5
7 1 0.530446 0.473134 0.5
ITEM: TIMESTEP
580
ITEM: NUMBER OF ATOMS
7
ITEM: BOX BOUNDS ff ff pp
-6.0000000000000000e+00 6.0000000000000000e+00
-6.0000000000000000e+00 6.0000000000000000e+00
-6.0000000000000000e+00 6.0000000000000000e+00
ITEM: ATOMS id type xs ys zs
1 2 0.461992 0.511139 0.5
2 1 0.538717 0.543662 0.5
3 1 0.528983 0.460905 0.5
4 1 0.578967 0.394193 0.5
5 1 0.519978 0.453056 0.5
6 1 0.521524 0.475003 0.5
7 1 0.530446 0.473135 0.5
ITEM: TIMESTEP
590
ITEM: NUMBER OF ATOMS
7
ITEM: BOX BOUNDS ff ff pp
-6.0000000000000000e+00 6.0000000000000000e+00
-6.0000000000000000e+00 6.0000000000000000e+00
-6.0000000000000000e+00 6.0000000000000000e+00
ITEM: ATOMS id type xs ys zs
1 2 0.461991 0.511138 0.5
2 1 0.538715 0.543663 0.5
3 1 0.528985 0.460906 0.5
4 1 0.578965 0.394191 0.5
5 1 0.519979 0.453057 0.5
6 1 0.521525 0.475003 0.5
7 1 0.530447 0.473136 0.5
ITEM: TIMESTEP
600
ITEM: NUMBER OF ATOMS
7
ITEM: BOX BOUNDS ff ff pp
-6.0000000000000000e+00 6.0000000000000000e+00
-6.0000000000000000e+00 6.0000000000000000e+00
-6.0000000000000000e+00 6.0000000000000000e+00
ITEM: ATOMS id type xs ys zs
1 2 0.46199 0.511137 0.5
2 1 0.538712 0.543665 0.5
3 1 0.528988 0.460907 0.5
4 1 0.578962 0.394188 0.5
5 1 0.51998 0.453058 0.5
6 1 0.521527 0.475004 0.5
7 1 0.530447 0.473137 0.5
ITEM: TIMESTEP
610
ITEM: NUMBER OF ATOMS
7
ITEM: BOX BOUNDS ff ff pp
-6.0000000000000000e+00 6.0000000000000000e+00
-6.0000000000000000e+00 6.0000000000000000e+00
-6.0000000000000000e+00 6.0000000000000000e+00
ITEM: ATOMS id type xs ys zs
1 2 0.461989 0.511136 0.5
2 1 0.53871 0.543666 0.5
3 1 0.52899 0.460908 0.5
4 1 0.57896 0.394185 0.5
5 1 0.519981 0.453058 0.5
6 1 0.521529 0.475004 0.5
7 1 0.530447 0.473138 0.5
ITEM: TIMESTEP
620
ITEM: NUMBER OF ATOMS
7
ITEM: BOX BOUNDS ff ff pp
-6.0000000000000000e+00 6.0000000000000000e+00
-6.0000000000000000e+00 6.0000000000000000e+00
-6.0000000000000000e+00 6.0000000000000000e+00
ITEM: ATOMS id type xs ys zs
1 2 0.461988 0.511135 0.5
2 1 0.538708 0.543668 0.5
3 1 0.528992 0.460909 0.5
4 1 0.578958 0.394183 0.5
5 1 0.519982 0.453059 0.5
6 1 0.52153 0.475005 0.5
7 1 0.530447 0.473139 0.5
ITEM: TIMESTEP
630
ITEM: NUMBER OF ATOMS
7
ITEM: BOX BOUNDS ff ff pp
-6.0000000000000000e+00 6.0000000000000000e+00
-6.0000000000000000e+00 6.0000000000000000e+00
-6.0000000000000000e+00 6.0000000000000000e+00
ITEM: ATOMS id type xs ys zs
1 2 0.461987 0.511133 0.5
2 1 0.538706 0.543669 0.5
3 1 0.528995 0.46091 0.5
4 1 0.578955 0.39418 0.5
5 1 0.519983 0.45306 0.5
6 1 0.521533 0.475005 0.5
7 1 0.530448 0.473141 0.5
ITEM: TIMESTEP
640
ITEM: NUMBER OF ATOMS
7
ITEM: BOX BOUNDS ff ff pp
-6.0000000000000000e+00 6.0000000000000000e+00
-6.0000000000000000e+00 6.0000000000000000e+00
-6.0000000000000000e+00 6.0000000000000000e+00
ITEM: ATOMS id type xs ys zs
1 2 0.461986 0.511132 0.5
2 1 0.538704 0.543671 0.5
3 1 0.528997 0.46091 0.5
4 1 0.578953 0.394178 0.5
5 1 0.519984 0.453061 0.5
6 1 0.521534 0.475006 0.5
7 1 0.530448 0.473142 0.5
ITEM: TIMESTEP
650
ITEM: NUMBER OF ATOMS
7
ITEM: BOX BOUNDS ff ff pp
-6.0000000000000000e+00 6.0000000000000000e+00
-6.0000000000000000e+00 6.0000000000000000e+00
-6.0000000000000000e+00 6.0000000000000000e+00
ITEM: ATOMS id type xs ys zs
1 2 0.461985 0.511131 0.5
2 1 0.538702 0.543672 0.5
3 1 0.528999 0.460911 0.5
4 1 0.578951 0.394176 0.5
5 1 0.519985 0.453061 0.5
6 1 0.521535 0.475006 0.5
7 1 0.530448 0.473143 0.5
ITEM: TIMESTEP
660
ITEM: NUMBER OF ATOMS
7
ITEM: BOX BOUNDS ff ff pp
-6.0000000000000000e+00 6.0000000000000000e+00
-6.0000000000000000e+00 6.0000000000000000e+00
-6.0000000000000000e+00 6.0000000000000000e+00
ITEM: ATOMS id type xs ys zs
1 2 0.461984 0.511129 0.5
2 1 0.538699 0.543673 0.5
3 1 0.529001 0.460912 0.5
4 1 0.578949 0.394173 0.5
5 1 0.519986 0.453062 0.5
6 1 0.521537 0.475006 0.5
7 1 0.530448 0.473144 0.5
ITEM: TIMESTEP
670
ITEM: NUMBER OF ATOMS
7
ITEM: BOX BOUNDS ff ff pp
-6.0000000000000000e+00 6.0000000000000000e+00
-6.0000000000000000e+00 6.0000000000000000e+00
-6.0000000000000000e+00 6.0000000000000000e+00
ITEM: ATOMS id type xs ys zs
1 2 0.461982 0.511128 0.5
2 1 0.538697 0.543675 0.5
3 1 0.529004 0.460913 0.5
4 1 0.578945 0.39417 0.5
5 1 0.519987 0.453063 0.5
6 1 0.52154 0.475007 0.5
7 1 0.530449 0.473145 0.5
ITEM: TIMESTEP
680
ITEM: NUMBER OF ATOMS
7
ITEM: BOX BOUNDS ff ff pp
-6.0000000000000000e+00 6.0000000000000000e+00
-6.0000000000000000e+00 6.0000000000000000e+00
-6.0000000000000000e+00 6.0000000000000000e+00
ITEM: ATOMS id type xs ys zs
1 2 0.461982 0.511127 0.5
2 1 0.538695 0.543676 0.5
3 1 0.529006 0.460914 0.5
4 1 0.578944 0.394168 0.5
5 1 0.519988 0.453063 0.5
6 1 0.521541 0.475007 0.5
7 1 0.530449 0.473146 0.5
ITEM: TIMESTEP
690
ITEM: NUMBER OF ATOMS
7
ITEM: BOX BOUNDS ff ff pp
-6.0000000000000000e+00 6.0000000000000000e+00
-6.0000000000000000e+00 6.0000000000000000e+00
-6.0000000000000000e+00 6.0000000000000000e+00
ITEM: ATOMS id type xs ys zs
1 2 0.461981 0.511126 0.5
2 1 0.538693 0.543677 0.5
3 1 0.529008 0.460914 0.5
4 1 0.578942 0.394166 0.5
5 1 0.519988 0.453064 0.5
6 1 0.521542 0.475008 0.5
7 1 0.530449 0.473147 0.5
ITEM: TIMESTEP
700
ITEM: NUMBER OF ATOMS
7
ITEM: BOX BOUNDS ff ff pp
-6.0000000000000000e+00 6.0000000000000000e+00
-6.0000000000000000e+00 6.0000000000000000e+00
-6.0000000000000000e+00 6.0000000000000000e+00
ITEM: ATOMS id type xs ys zs
1 2 0.461979 0.511124 0.5
2 1 0.53869 0.543679 0.5
3 1 0.529011 0.460916 0.5
4 1 0.578939 0.394162 0.5
5 1 0.51999 0.453065 0.5
6 1 0.521545 0.475008 0.5
7 1 0.530449 0.473148 0.5
ITEM: TIMESTEP
710
ITEM: NUMBER OF ATOMS
7
ITEM: BOX BOUNDS ff ff pp
-6.0000000000000000e+00 6.0000000000000000e+00
-6.0000000000000000e+00 6.0000000000000000e+00
-6.0000000000000000e+00 6.0000000000000000e+00