ITEM: TIMESTEP
0
ITEM: NUMBER OF ATOMS
7
ITEM: BOX BOUNDS ff ff pp
-6.0000000000000000e+00 6.0000000000000000e+00
-6.0000000000000000e+00 6.0000000000000000e+00
-6.0000000000000000e+00 6.0000000000000000e+00
ITEM: ATOMS id type xs ys zs
1 2 0.492781 0.501884 0.5
2 1 0.571582 0.508822 0.5
3 1 0.541762 0.435532 0.5
4 1 0.566332 0.35891 0.5
5 1 0.529197 0.428663 0.5
6 1 0.538552 0.450301 0.5
7 1 0.543285 0.44563 0.5
ITEM: TIMESTEP
10
ITEM: NUMBER OF ATOMS
7
ITEM: BOX BOUNDS ff ff pp
-6.0000000000000000e+00 6.0000000000000000e+00
-6.0000000000000000e+00 6.0000000000000000e+00
-6.0000000000000000e+00 6.0000000000000000e+00
ITEM: ATOMS id type xs ys zs
1 2 0.490412 0.50279 0.5
2 1 0.573721 0.511538 0.5
3 1 0.54055 0.434721 0.5
4 1 0.567742 0.35586 0.5
5 1 0.528369 0.429802 0.5
6 1 0.537435 0.450475 0.5
7 1 0.544365 0.446137 0.5
ITEM: TIMESTEP
20
ITEM: NUMBER OF ATOMS
7
ITEM: BOX BOUNDS ff ff pp
-6.0000000000000000e+00 6.0000000000000000e+00
-6.0000000000000000e+00 6.0000000000000000e+00
-6.0000000000000000e+00 6.0000000000000000e+00
ITEM: ATOMS id type xs ys zs
1 2 0.490393 0.502685 0.5
2 1 0.573307 0.511421 0.5
3 1 0.540193 0.434905 0.5
4 1 0.567562 0.35618 0.5
5 1 0.52882 0.430072 0.5
6 1 0.537224 0.450539 0.5
7 1 0.544665 0.446281 0.5
ITEM: TIMESTEP
30
ITEM: NUMBER OF ATOMS
7
ITEM: BOX BOUNDS ff ff pp
-6.0000000000000000e+00 6.0000000000000000e+00
-6.0000000000000000e+00 6.0000000000000000e+00
-6.0000000000000000e+00 6.0000000000000000e+00
ITEM: ATOMS id type xs ys zs
1 2 0.490401 0.502649 0.5
2 1 0.573276 0.511412 0.5
3 1 0.540161 0.434911 0.5
4 1 0.567537 0.356208 0.5
5 1 0.528866 0.430093 0.5
6 1 0.537173 0.450568 0.5
7 1 0.544713 0.446304 0.5
ITEM: TIMESTEP
40
ITEM: NUMBER OF ATOMS
7
ITEM: BOX BOUNDS ff ff pp
-6.0000000000000000e+00 6.0000000000000000e+00
-6.0000000000000000e+00 6.0000000000000000e+00
-6.0000000000000000e+00 6.0000000000000000e+00
ITEM: ATOMS id type xs ys zs
1 2 0.490378 0.502609 0.5
2 1 0.573245 0.511425 0.5
3 1 0.540109 0.434952 0.5
4 1 0.567507 0.356241 0.5
5 1 0.528939 0.430138 0.5
6 1 0.537078 0.4506 0.5
7 1 0.544787 0.446326 0.5
ITEM: TIMESTEP
50
ITEM: NUMBER OF ATOMS
7
ITEM: BOX BOUNDS ff ff pp
-6.0000000000000000e+00 6.0000000000000000e+00
-6.0000000000000000e+00 6.0000000000000000e+00
-6.0000000000000000e+00 6.0000000000000000e+00
ITEM: ATOMS id type xs ys zs
1 2 0.490355 0.502598 0.5
2 1 0.573218 0.511445 0.5
3 1 0.540085 0.434981 0.5
4 1 0.567498 0.356269 0.5
5 1 0.528967 0.430168 0.5
6 1 0.53703 0.450624 0.5
7 1 0.544812 0.446348 0.5
ITEM: TIMESTEP
60
ITEM: NUMBER OF ATOMS
7
ITEM: BOX BOUNDS ff ff pp
-6.0000000000000000e+00 6.0000000000000000e+00
-6.0000000000000000e+00 6.0000000000000000e+00
-6.0000000000000000e+00 6.0000000000000000e+00
ITEM: ATOMS id type xs ys zs
1 2 0.490348 0.502598 0.5
2 1 0.573209 0.511453 0.5
3 1 0.54008 0.434989 0.5
4 1 0.567498 0.356278 0.5
5 1 0.52897 0.430176 0.5
6 1 0.53702 0.450631 0.5
7 1 0.544814 0.446355 0.5
ITEM: TIMESTEP
70
ITEM: NUMBER OF ATOMS
7
ITEM: BOX BOUNDS ff ff pp
-6.0000000000000000e+00 6.0000000000000000e+00
-6.0000000000000000e+00 6.0000000000000000e+00
-6.0000000000000000e+00 6.0000000000000000e+00
ITEM: ATOMS id type xs ys zs
1 2 0.490332 0.502599 0.5
2 1 0.573192 0.51147 0.5
3 1 0.540072 0.435003 0.5
4 1 0.567499 0.356295 0.5
5 1 0.528972 0.430189 0.5
6 1 0.537006 0.450644 0.5
7 1 0.544814 0.446369 0.5
ITEM: TIMESTEP
80
ITEM: NUMBER OF ATOMS
7
ITEM: BOX BOUNDS ff ff pp
-6.0000000000000000e+00 6.0000000000000000e+00
-6.0000000000000000e+00 6.0000000000000000e+00
-6.0000000000000000e+00 6.0000000000000000e+00
ITEM: ATOMS id type xs ys zs
1 2 0.490316 0.502602 0.5
2 1 0.573162 0.511482 0.5
3 1 0.540068 0.435053 0.5
4 1 0.567511 0.356295 0.5
5 1 0.528968 0.430216 0.5
6 1 0.536995 0.45066 0.5
7 1 0.544802 0.446377 0.5
ITEM: TIMESTEP
90
ITEM: NUMBER OF ATOMS
7
ITEM: BOX BOUNDS ff ff pp
-6.0000000000000000e+00 6.0000000000000000e+00
-6.0000000000000000e+00 6.0000000000000000e+00
-6.0000000000000000e+00 6.0000000000000000e+00
ITEM: ATOMS id type xs ys zs
1 2 0.490308 0.502605 0.5
2 1 0.573166 0.511497 0.5
3 1 0.540064 0.435023 0.5
4 1 0.567504 0.356319 0.5
5 1 0.528969 0.430208 0.5
6 1 0.536992 0.450663 0.5
7 1 0.544807 0.446391 0.5
ITEM: TIMESTEP
100
ITEM: NUMBER OF ATOMS
7
ITEM: BOX BOUNDS ff ff pp
-6.0000000000000000e+00 6.0000000000000000e+00
-6.0000000000000000e+00 6.0000000000000000e+00
-6.0000000000000000e+00 6.0000000000000000e+00
ITEM: ATOMS id type xs ys zs
1 2 0.4903 0.502608 0.5
2 1 0.573156 0.511507 0.5
3 1 0.540062 0.43503 0.5
4 1 0.567505 0.356327 0.5
5 1 0.528967 0.430214 0.5
6 1 0.536988 0.450669 0.5
7 1 0.544804 0.446398 0.5
ITEM: TIMESTEP
110
ITEM: NUMBER OF ATOMS
7
ITEM: BOX BOUNDS ff ff pp
-6.0000000000000000e+00 6.0000000000000000e+00
-6.0000000000000000e+00 6.0000000000000000e+00
-6.0000000000000000e+00 6.0000000000000000e+00
ITEM: ATOMS id type xs ys zs
1 2 0.490287 0.502611 0.5
2 1 0.573142 0.511522 0.5
3 1 0.54006 0.435041 0.5
4 1 0.567507 0.356338 0.5
5 1 0.528964 0.430224 0.5
6 1 0.536983 0.450679 0.5
7 1 0.544799 0.446409 0.5
ITEM: TIMESTEP
120
ITEM: NUMBER OF ATOMS
7
ITEM: BOX BOUNDS ff ff pp
-6.0000000000000000e+00 6.0000000000000000e+00
-6.0000000000000000e+00 6.0000000000000000e+00
-6.0000000000000000e+00 6.0000000000000000e+00
ITEM: ATOMS id type xs ys zs
1 2 0.490282 0.502613 0.5
2 1 0.573137 0.511528 0.5
3 1 0.54006 0.435044 0.5
4 1 0.567507 0.356342 0.5
5 1 0.528964 0.430226 0.5
6 1 0.536982 0.450682 0.5
7 1 0.544798 0.446413 0.5
ITEM: TIMESTEP
130
ITEM: NUMBER OF ATOMS
7
ITEM: BOX BOUNDS ff ff pp
-6.0000000000000000e+00 6.0000000000000000e+00
-6.0000000000000000e+00 6.0000000000000000e+00
-6.0000000000000000e+00 6.0000000000000000e+00
ITEM: ATOMS id type xs ys zs
1 2 0.490278 0.502613 0.5
2 1 0.573132 0.511533 0.5
3 1 0.54006 0.435047 0.5
4 1 0.567507 0.356345 0.5
5 1 0.528963 0.430229 0.5
6 1 0.536981 0.450685 0.5
7 1 0.544796 0.446417 0.5
ITEM: TIMESTEP
140
ITEM: NUMBER OF ATOMS
7
ITEM: BOX BOUNDS ff ff pp
-6.0000000000000000e+00 6.0000000000000000e+00
-6.0000000000000000e+00 6.0000000000000000e+00
-6.0000000000000000e+00 6.0000000000000000e+00
ITEM: ATOMS id type xs ys zs
1 2 0.490272 0.502614 0.5
2 1 0.573126 0.51154 0.5
3 1 0.54006 0.43505 0.5
4 1 0.567505 0.356348 0.5
5 1 0.528963 0.430233 0.5
6 1 0.53698 0.450688 0.5
7 1 0.544795 0.446422 0.5
ITEM: TIMESTEP
150
ITEM: NUMBER OF ATOMS
7
ITEM: BOX BOUNDS ff ff pp
-6.0000000000000000e+00 6.0000000000000000e+00
-6.0000000000000000e+00 6.0000000000000000e+00
-6.0000000000000000e+00 6.0000000000000000e+00
ITEM: ATOMS id type xs ys zs
1 2 0.49027 0.502614 0.5
2 1 0.573124 0.511542 0.5
3 1 0.540061 0.435052 0.5
4 1 0.567505 0.356349 0.5
5 1 0.528963 0.430234 0.5
6 1 0.53698 0.450689 0.5
7 1 0.544794 0.446423 0.5
ITEM: TIMESTEP
160
ITEM: NUMBER OF ATOMS
7
ITEM: BOX BOUNDS ff ff pp
-6.0000000000000000e+00 6.0000000000000000e+00
-6.0000000000000000e+00 6.0000000000000000e+00
-6.0000000000000000e+00 6.0000000000000000e+00
ITEM: ATOMS id type xs ys zs
1 2 0.490268 0.502614 0.5
2 1 0.573121 0.511545 0.5
3 1 0.540062 0.435053 0.5
4 1 0.567504 0.356349 0.5
5 1 0.528963 0.430235 0.5
6 1 0.536981 0.450691 0.5
7 1 0.544794 0.446425 0.5
ITEM: TIMESTEP
170
ITEM: NUMBER OF ATOMS
7
ITEM: BOX BOUNDS ff ff pp
-6.0000000000000000e+00 6.0000000000000000e+00
-6.0000000000000000e+00 6.0000000000000000e+00
-6.0000000000000000e+00 6.0000000000000000e+00
ITEM: ATOMS id type xs ys zs
1 2 0.490267 0.502614 0.5
2 1 0.57312 0.511546 0.5
3 1 0.540063 0.435054 0.5
4 1 0.567503 0.35635 0.5
5 1 0.528963 0.430236 0.5
6 1 0.536981 0.450691 0.5
7 1 0.544794 0.446426 0.5
ITEM: TIMESTEP
180
ITEM: NUMBER OF ATOMS
7
ITEM: BOX BOUNDS ff ff pp
-6.0000000000000000e+00 6.0000000000000000e+00
-6.0000000000000000e+00 6.0000000000000000e+00
-6.0000000000000000e+00 6.0000000000000000e+00
ITEM: ATOMS id type xs ys zs
1 2 0.490265 0.502614 0.5
2 1 0.573117 0.511549 0.5
3 1 0.540064 0.435055 0.5
4 1 0.567501 0.356349 0.5
5 1 0.528964 0.430237 0.5
6 1 0.536982 0.450692 0.5
7 1 0.544794 0.446428 0.5
ITEM: TIMESTEP
190
ITEM: NUMBER OF ATOMS
7
ITEM: BOX BOUNDS ff ff pp
-6.0000000000000000e+00 6.0000000000000000e+00
-6.0000000000000000e+00 6.0000000000000000e+00
-6.0000000000000000e+00 6.0000000000000000e+00
ITEM: ATOMS id type xs ys zs
1 2 0.490264 0.502614 0.5
2 1 0.573117 0.51155 0.5
3 1 0.540065 0.435055 0.5
4 1 0.5675 0.356349 0.5
5 1 0.528964 0.430237 0.5
6 1 0.536982 0.450692 0.5
7 1 0.544794 0.446428 0.5
ITEM: TIMESTEP
200
ITEM: NUMBER OF ATOMS
7
ITEM: BOX BOUNDS ff ff pp
-6.0000000000000000e+00 6.0000000000000000e+00
-6.0000000000000000e+00 6.0000000000000000e+00
-6.0000000000000000e+00 6.0000000000000000e+00
ITEM: ATOMS id type xs ys zs
1 2 0.490263 0.502613 0.5
2 1 0.573115 0.511551 0.5
3 1 0.540066 0.435056 0.5
4 1 0.567498 0.356349 0.5
5 1 0.528964 0.430238 0.5
6 1 0.536983 0.450692 0.5
7 1 0.544794 0.446429 0.5
ITEM: TIMESTEP
210
ITEM: NUMBER OF ATOMS
7
ITEM: BOX BOUNDS ff ff pp
-6.0000000000000000e+00 6.0000000000000000e+00
-6.0000000000000000e+00 6.0000000000000000e+00
-6.0000000000000000e+00 6.0000000000000000e+00
ITEM: ATOMS id type xs ys zs
1 2 0.490261 0.502613 0.5
2 1 0.573113 0.511554 0.5
3 1 0.540068 0.435056 0.5
4 1 0.567495 0.356348 0.5
5 1 0.528965 0.430239 0.5
6 1 0.536985 0.450693 0.5
7 1 0.544794 0.446431 0.5
ITEM: TIMESTEP
220
ITEM: NUMBER OF ATOMS
7
ITEM: BOX BOUNDS ff ff pp
-6.0000000000000000e+00 6.0000000000000000e+00
-6.0000000000000000e+00 6.0000000000000000e+00
-6.0000000000000000e+00 6.0000000000000000e+00
ITEM: ATOMS id type xs ys zs
1 2 0.49026 0.502612 0.5
2 1 0.573112 0.511555 0.5
3 1 0.540069 0.435056 0.5
4 1 0.567494 0.356347 0.5
5 1 0.528965 0.430239 0.5
6 1 0.536985 0.450693 0.5
7 1 0.544794 0.446431 0.5
ITEM: TIMESTEP
230
ITEM: NUMBER OF ATOMS
7
ITEM: BOX BOUNDS ff ff pp
-6.0000000000000000e+00 6.0000000000000000e+00
-6.0000000000000000e+00 6.0000000000000000e+00
-6.0000000000000000e+00 6.0000000000000000e+00
ITEM: ATOMS id type xs ys zs
1 2 0.490259 0.502612 0.5
2 1 0.573111 0.511556 0.5
3 1 0.54007 0.435057 0.5
4 1 0.567493 0.356347 0.5
5 1 0.528966 0.430239 0.5
6 1 0.536986 0.450693 0.5
7 1 0.544794 0.446432 0.5
ITEM: TIMESTEP
240
ITEM: NUMBER OF ATOMS
7
ITEM: BOX BOUNDS ff ff pp
-6.0000000000000000e+00 6.0000000000000000e+00
-6.0000000000000000e+00 6.0000000000000000e+00
-6.0000000000000000e+00 6.0000000000000000e+00
ITEM: ATOMS id type xs ys zs
1 2 0.490258 0.502611 0.5
2 1 0.573109 0.511558 0.5
3 1 0.540072 0.435057 0.5
4 1 0.567491 0.356345 0.5
5 1 0.528967 0.43024 0.5
6 1 0.536987 0.450693 0.5
7 1 0.544795 0.446433 0.5
ITEM: TIMESTEP
250
ITEM: NUMBER OF ATOMS
7
ITEM: BOX BOUNDS ff ff pp
-6.0000000000000000e+00 6.0000000000000000e+00
-6.0000000000000000e+00 6.0000000000000000e+00
-6.0000000000000000e+00 6.0000000000000000e+00
ITEM: ATOMS id type xs ys zs
1 2 0.490257 0.502611 0.5
2 1 0.573108 0.51156 0.5
3 1 0.540074 0.435057 0.5
4 1 0.567488 0.356344 0.5
5 1 0.528967 0.43024 0.5
6 1 0.536989 0.450693 0.5
7 1 0.544795 0.446434 0.5
ITEM: TIMESTEP
260
ITEM: NUMBER OF ATOMS
7
ITEM: BOX BOUNDS ff ff pp
-6.0000000000000000e+00 6.0000000000000000e+00
-6.0000000000000000e+00 6.0000000000000000e+00
-6.0000000000000000e+00 6.0000000000000000e+00
ITEM: ATOMS id type xs ys zs
1 2 0.490256 0.50261 0.5
2 1 0.573107 0.51156 0.5
3 1 0.540075 0.435057 0.5
4 1 0.567487 0.356343 0.5
5 1 0.528968 0.43024 0.5
6 1 0.536989 0.450693 0.5
7 1 0.544795 0.446434 0.5
ITEM: TIMESTEP
270
ITEM: NUMBER OF ATOMS
7
ITEM: BOX BOUNDS ff ff pp
-6.0000000000000000e+00 6.0000000000000000e+00
-6.0000000000000000e+00 6.0000000000000000e+00
-6.0000000000000000e+00 6.0000000000000000e+00
ITEM: ATOMS id type xs ys zs
1 2 0.490255 0.50261 0.5
2 1 0.573106 0.511562 0.5
3 1 0.540077 0.435057 0.5
4 1 0.567485 0.356342 0.5
5 1 0.528969 0.430241 0.5
6 1 0.53699 0.450693 0.5
7 1 0.544795 0.446435 0.5
ITEM: TIMESTEP
280
ITEM: NUMBER OF ATOMS
7
ITEM: BOX BOUNDS ff ff pp
-6.0000000000000000e+00 6.0000000000000000e+00
-6.0000000000000000e+00 6.0000000000000000e+00
-6.0000000000000000e+00 6.0000000000000000e+00
ITEM: ATOMS id type xs ys zs
1 2 0.490254 0.502609 0.5
2 1 0.573105 0.511563 0.5
3 1 0.540078 0.435057 0.5
4 1 0.567483 0.356341 0.5
5 1 0.528969 0.430241 0.5
6 1 0.536991 0.450693 0.5
7 1 0.544796 0.446435 0.5
ITEM: TIMESTEP
290
ITEM: NUMBER OF ATOMS
7
ITEM: BOX BOUNDS ff ff pp
-6.0000000000000000e+00 6.0000000000000000e+00
-6.0000000000000000e+00 6.0000000000000000e+00
-6.0000000000000000e+00 6.0000000000000000e+00
ITEM: ATOMS id type xs ys zs
1 2 0.490254 0.502609 0.5
2 1 0.573104 0.511564 0.5
3 1 0.540079 0.435057 0.5
4 1 0.567482 0.356341 0.5
5 1 0.52897 0.430241 0.5
6 1 0.536992 0.450693 0.5
7 1 0.544796 0.446436 0.5
ITEM: TIMESTEP
300
ITEM: NUMBER OF ATOMS
7
ITEM: BOX BOUNDS ff ff pp
-6.0000000000000000e+00 6.0000000000000000e+00
-6.0000000000000000e+00 6.0000000000000000e+00
-6.0000000000000000e+00 6.0000000000000000e+00
ITEM: ATOMS id type xs ys zs
1 2 0.490253 0.502608 0.5
2 1 0.573103 0.511565 0.5
3 1 0.540081 0.435057 0.5
4 1 0.56748 0.356339 0.5
5 1 0.52897 0.430241 0.5
6 1 0.536993 0.450693 0.5
7 1 0.544796 0.446436 0.5
ITEM: TIMESTEP
310
ITEM: NUMBER OF ATOMS
7
ITEM: BOX BOUNDS ff ff pp
-6.0000000000000000e+00 6.0000000000000000e+00
-6.0000000000000000e+00 6.0000000000000000e+00
-6.0000000000000000e+00 6.0000000000000000e+00
ITEM: ATOMS id type xs ys zs
1 2 0.490252 0.502608 0.5
2 1 0.573102 0.511566 0.5
3 1 0.540082 0.435057 0.5
4 1 0.567479 0.356339 0.5
5 1 0.528971 0.430242 0.5
6 1 0.536994 0.450693 0.5
7 1 0.544796 0.446437 0.5
ITEM: TIMESTEP
320
ITEM: NUMBER OF ATOMS
7
ITEM: BOX BOUNDS ff ff pp
-6.0000000000000000e+00 6.0000000000000000e+00
-6.0000000000000000e+00 6.0000000000000000e+00
-6.0000000000000000e+00 6.0000000000000000e+00
ITEM: ATOMS id type xs ys zs
1 2 0.490251 0.502607 0.5
2 1 0.573101 0.511567 0.5
3 1 0.540083 0.435058 0.5
4 1 0.567477 0.356338 0.5
5 1 0.528971 0.430242 0.5
6 1 0.536995 0.450693 0.5
7 1 0.544797 0.446437 0.5
ITEM: TIMESTEP
330
ITEM: NUMBER OF ATOMS
7
ITEM: BOX BOUNDS ff ff pp
-6.0000000000000000e+00 6.0000000000000000e+00
-6.0000000000000000e+00 6.0000000000000000e+00
-6.0000000000000000e+00 6.0000000000000000e+00
ITEM: ATOMS id type xs ys zs
1 2 0.49025 0.502607 0.5
2 1 0.5731 0.511568 0.5
3 1 0.540085 0.435058 0.5
4 1 0.567475 0.356337 0.5
5 1 0.528972 0.430242 0.5
6 1 0.536996 0.450693 0.5
7 1 0.544797 0.446438 0.5
ITEM: TIMESTEP
340
ITEM: NUMBER OF ATOMS
7
ITEM: BOX BOUNDS ff ff pp
-6.0000000000000000e+00 6.0000000000000000e+00
-6.0000000000000000e+00 6.0000000000000000e+00
-6.0000000000000000e+00 6.0000000000000000e+00
ITEM: ATOMS id type xs ys zs
1 2 0.490249 0.502606 0.5
2 1 0.573099 0.511569 0.5
3 1 0.540086 0.435058 0.5
4 1 0.567473 0.356336 0.5
5 1 0.528973 0.430242 0.5
6 1 0.536997 0.450693 0.5
7 1 0.544797 0.446438 0.5
ITEM: TIMESTEP
350
ITEM: NUMBER OF ATOMS
7
ITEM: BOX BOUNDS ff ff pp
-6.0000000000000000e+00 6.0000000000000000e+00
-6.0000000000000000e+00 6.0000000000000000e+00
-6.0000000000000000e+00 6.0000000000000000e+00
ITEM: ATOMS id type xs ys zs
1 2 0.490249 0.502606 0.5
2 1 0.573098 0.51157 0.5
3 1 0.540087 0.435058 0.5
4 1 0.567472 0.356335 0.5
5 1 0.528973 0.430242 0.5
6 1 0.536998 0.450693 0.5
7 1 0.544798 0.446439 0.5
ITEM: TIMESTEP
360
ITEM: NUMBER OF ATOMS
7
ITEM: BOX BOUNDS ff ff pp
-6.0000000000000000e+00 6.0000000000000000e+00
-6.0000000000000000e+00 6.0000000000000000e+00
-6.0000000000000000e+00 6.0000000000000000e+00
ITEM: ATOMS id type xs ys zs
1 2 0.490248 0.502605 0.5
2 1 0.573097 0.511572 0.5
3 1 0.540089 0.435058 0.5
4 1 0.56747 0.356334 0.5
5 1 0.528974 0.430243 0.5
6 1 0.536999 0.450692 0.5
7 1 0.544798 0.446439 0.5
ITEM: TIMESTEP
370
ITEM: NUMBER OF ATOMS
7
ITEM: BOX BOUNDS ff ff pp
-6.0000000000000000e+00 6.0000000000000000e+00
-6.0000000000000000e+00 6.0000000000000000e+00
-6.0000000000000000e+00 6.0000000000000000e+00
ITEM: ATOMS id type xs ys zs
1 2 0.490247 0.502605 0.5
2 1 0.573096 0.511573 0.5
3 1 0.540091 0.435058 0.5
4 1 0.567468 0.356333 0.5
5 1 0.528975 0.430243 0.5
6 1 0.537 0.450692 0.5
7 1 0.544798 0.44644 0.5
ITEM: TIMESTEP
380
ITEM: NUMBER OF ATOMS
7
ITEM: BOX BOUNDS ff ff pp
-6.0000000000000000e+00 6.0000000000000000e+00
-6.0000000000000000e+00 6.0000000000000000e+00
-6.0000000000000000e+00 6.0000000000000000e+00
ITEM: ATOMS id type xs ys zs
1 2 0.490246 0.502604 0.5
2 1 0.573096 0.511574 0.5
3 1 0.540092 0.435058 0.5
4 1 0.567467 0.356332 0.5
5 1 0.528975 0.430243 0.5
6 1 0.537001 0.450692 0.5
7 1 0.544798 0.44644 0.5
ITEM: TIMESTEP
390
ITEM: NUMBER OF ATOMS
7
ITEM: BOX BOUNDS ff ff pp
-6.0000000000000000e+00 6.0000000000000000e+00
-6.0000000000000000e+00 6.0000000000000000e+00
-6.0000000000000000e+00 6.0000000000000000e+00
ITEM: ATOMS id type xs ys zs
1 2 0.490246 0.502604 0.5
2 1 0.573094 0.511575 0.5
3 1 0.540093 0.435058 0.5
4 1 0.567465 0.356331 0.5
5 1 0.528976 0.430243 0.5
6 1 0.537002 0.450692 0.5
7 1 0.544799 0.446441 0.5
ITEM: TIMESTEP
400
ITEM: NUMBER OF ATOMS
7
ITEM: BOX BOUNDS ff ff pp
-6.0000000000000000e+00 6.0000000000000000e+00
-6.0000000000000000e+00 6.0000000000000000e+00
-6.0000000000000000e+00 6.0000000000000000e+00
ITEM: ATOMS id type xs ys zs
1 2 0.490245 0.502603 0.5
2 1 0.573093 0.511576 0.5
3 1 0.540095 0.435058 0.5
4 1 0.567463 0.35633 0.5
5 1 0.528976 0.430244 0.5
6 1 0.537003 0.450692 0.5
7 1 0.544799 0.446442 0.5
ITEM: TIMESTEP
410
ITEM: NUMBER OF ATOMS
7
ITEM: BOX BOUNDS ff ff pp
-6.0000000000000000e+00 6.0000000000000000e+00
-6.0000000000000000e+00 6.0000000000000000e+00
-6.0000000000000000e+00 6.0000000000000000e+00
ITEM: ATOMS id type xs ys zs
1 2 0.490244 0.502603 0.5
2 1 0.573093 0.511577 0.5
3 1 0.540096 0.435058 0.5
4 1 0.567462 0.356329 0.5
5 1 0.528977 0.430244 0.5
6 1 0.537004 0.450692 0.5
7 1 0.544799 0.446442 0.5
ITEM: TIMESTEP
420
ITEM: NUMBER OF ATOMS
7
ITEM: BOX BOUNDS ff ff pp
-6.0000000000000000e+00 6.0000000000000000e+00
-6.0000000000000000e+00 6.0000000000000000e+00
-6.0000000000000000e+00 6.0000000000000000e+00
ITEM: ATOMS id type xs ys zs
1 2 0.490243 0.502602 0.5
2 1 0.573092 0.511578 0.5
3 1 0.540097 0.435058 0.5
4 1 0.56746 0.356328 0.5
5 1 0.528977 0.430244 0.5
6 1 0.537005 0.450692 0.5
7 1 0.5448 0.446442 0.5
ITEM: TIMESTEP
430
ITEM: NUMBER OF ATOMS
7
ITEM: BOX BOUNDS ff ff pp
-6.0000000000000000e+00 6.0000000000000000e+00
-6.0000000000000000e+00 6.0000000000000000e+00
-6.0000000000000000e+00 6.0000000000000000e+00
ITEM: ATOMS id type xs ys zs
1 2 0.490242 0.502601 0.5
2 1 0.57309 0.511579 0.5
3 1 0.540099 0.435058 0.5
4 1 0.567458 0.356327 0.5
5 1 0.528978 0.430244 0.5
6 1 0.537006 0.450692 0.5
7 1 0.5448 0.446443 0.5
ITEM: TIMESTEP
440
ITEM: NUMBER OF ATOMS
7
ITEM: BOX BOUNDS ff ff pp
-6.0000000000000000e+00 6.0000000000000000e+00
-6.0000000000000000e+00 6.0000000000000000e+00
-6.0000000000000000e+00 6.0000000000000000e+00
ITEM: ATOMS id type xs ys zs
1 2 0.490242 0.502601 0.5
2 1 0.57309 0.51158 0.5
3 1 0.5401 0.435058 0.5
4 1 0.567457 0.356326 0.5
5 1 0.528978 0.430244 0.5
6 1 0.537007 0.450692 0.5
7 1 0.5448 0.446443 0.5
ITEM: TIMESTEP
450
ITEM: NUMBER OF ATOMS
7
ITEM: BOX BOUNDS ff ff pp
-6.0000000000000000e+00 6.0000000000000000e+00
-6.0000000000000000e+00 6.0000000000000000e+00
-6.0000000000000000e+00 6.0000000000000000e+00
ITEM: ATOMS id type xs ys zs
1 2 0.490241 0.502601 0.5
2 1 0.573089 0.511581 0.5
3 1 0.540101 0.435058 0.5
4 1 0.567455 0.356325 0.5
5 1 0.528979 0.430245 0.5
6 1 0.537008 0.450692 0.5
7 1 0.5448 0.446444 0.5
ITEM: TIMESTEP
460
ITEM: NUMBER OF ATOMS
7
ITEM: BOX BOUNDS ff ff pp
-6.0000000000000000e+00 6.0000000000000000e+00
-6.0000000000000000e+00 6.0000000000000000e+00
-6.0000000000000000e+00 6.0000000000000000e+00
ITEM: ATOMS id type xs ys zs
1 2 0.49024 0.5026 0.5
2 1 0.573088 0.511582 0.5
3 1 0.540103 0.435058 0.5
4 1 0.567453 0.356324 0.5
5 1 0.52898 0.430245 0.5
6 1 0.537009 0.450692 0.5
7 1 0.544801 0.446445 0.5
ITEM: TIMESTEP
470
ITEM: NUMBER OF ATOMS
7
ITEM: BOX BOUNDS ff ff pp
-6.0000000000000000e+00 6.0000000000000000e+00
-6.0000000000000000e+00 6.0000000000000000e+00
-6.0000000000000000e+00 6.0000000000000000e+00
ITEM: ATOMS id type xs ys zs
1 2 0.49024 0.5026 0.5
2 1 0.573087 0.511583 0.5
3 1 0.540104 0.435058 0.5
4 1 0.567452 0.356323 0.5
5 1 0.52898 0.430245 0.5
6 1 0.53701 0.450692 0.5
7 1 0.544801 0.446445 0.5
ITEM: TIMESTEP
480
ITEM: NUMBER OF ATOMS
7
ITEM: BOX BOUNDS ff ff pp
-6.0000000000000000e+00 6.0000000000000000e+00
-6.0000000000000000e+00 6.0000000000000000e+00
-6.0000000000000000e+00 6.0000000000000000e+00
ITEM: ATOMS id type xs ys zs
1 2 0.490239 0.502599 0.5
2 1 0.573086 0.511584 0.5
3 1 0.540105 0.435058 0.5
4 1 0.56745 0.356322 0.5
5 1 0.528981 0.430245 0.5
6 1 0.537011 0.450692 0.5
7 1 0.544801 0.446446 0.5
ITEM: TIMESTEP
490
ITEM: NUMBER OF ATOMS
7
ITEM: BOX BOUNDS ff ff pp
-6.0000000000000000e+00 6.0000000000000000e+00
-6.0000000000000000e+00 6.0000000000000000e+00
-6.0000000000000000e+00 6.0000000000000000e+00
ITEM: ATOMS id type xs ys zs
1 2 0.490238 0.502599 0.5
2 1 0.573085 0.511585 0.5
3 1 0.540106 0.435058 0.5
4 1 0.567449 0.356322 0.5
5 1 0.528981 0.430245 0.5
6 1 0.537012 0.450692 0.5
7 1 0.544801 0.446446 0.5
ITEM: TIMESTEP
500
ITEM: NUMBER OF ATOMS
7
ITEM: BOX BOUNDS ff ff pp
-6.0000000000000000e+00 6.0000000000000000e+00
-6.0000000000000000e+00 6.0000000000000000e+00
-6.0000000000000000e+00 6.0000000000000000e+00
ITEM: ATOMS id type xs ys zs
1 2 0.490237 0.502598 0.5
2 1 0.573084 0.511586 0.5
3 1 0.540108 0.435059 0.5
4 1 0.567447 0.356321 0.5
5 1 0.528982 0.430246 0.5
6 1 0.537013 0.450692 0.5
7 1 0.544802 0.446446 0.5
ITEM: TIMESTEP
510
ITEM: NUMBER OF ATOMS
7
ITEM: BOX BOUNDS ff ff pp
-6.0000000000000000e+00 6.0000000000000000e+00
-6.0000000000000000e+00 6.0000000000000000e+00
-6.0000000000000000e+00 6.0000000000000000e+00
ITEM: ATOMS id type xs ys zs
1 2 0.490236 0.502597 0.5
2 1 0.573083 0.511587 0.5
3 1 0.540109 0.435059 0.5
4 1 0.567445 0.356319 0.5
5 1 0.528983 0.430246 0.5
6 1 0.537014 0.450691 0.5
7 1 0.544802 0.446447 0.5
ITEM: TIMESTEP
520
ITEM: NUMBER OF ATOMS
7
ITEM: BOX BOUNDS ff ff pp
-6.0000000000000000e+00 6.0000000000000000e+00
-6.0000000000000000e+00 6.0000000000000000e+00
-6.0000000000000000e+00 6.0000000000000000e+00
ITEM: ATOMS id type xs ys zs
1 2 0.490236 0.502597 0.5
2 1 0.573083 0.511588 0.5
3 1 0.54011 0.435059 0.5
4 1 0.567444 0.356319 0.5
5 1 0.528983 0.430246 0.5
6 1 0.537015 0.450691 0.5
7 1 0.544802 0.446447 0.5
ITEM: TIMESTEP
530
ITEM: NUMBER OF ATOMS
7
ITEM: BOX BOUNDS ff ff pp
-6.0000000000000000e+00 6.0000000000000000e+00
-6.0000000000000000e+00 6.0000000000000000e+00
-6.0000000000000000e+00 6.0000000000000000e+00
ITEM: ATOMS id type xs ys zs
1 2 0.490235 0.502597 0.5
2 1 0.573082 0.511589 0.5
3 1 0.540112 0.435059 0.5
4 1 0.567443 0.356318 0.5
5 1 0.528983 0.430246 0.5
6 1 0.537015 0.450691 0.5
7 1 0.544802 0.446448 0.5
ITEM: TIMESTEP
540
ITEM: NUMBER OF ATOMS
7
ITEM: BOX BOUNDS ff ff pp
-6.0000000000000000e+00 6.0000000000000000e+00
-6.0000000000000000e+00 6.0000000000000000e+00
-6.0000000000000000e+00 6.0000000000000000e+00
ITEM: ATOMS id type xs ys zs
1 2 0.490234 0.502596 0.5
2 1 0.573081 0.51159 0.5
3 1 0.540113 0.435059 0.5
4 1 0.567441 0.356317 0.5
5 1 0.528984 0.430246 0.5
6 1 0.537017 0.450691 0.5
7 1 0.544803 0.446448 0.5
ITEM: TIMESTEP
550
ITEM: NUMBER OF ATOMS
7
ITEM: BOX BOUNDS ff ff pp
-6.0000000000000000e+00 6.0000000000000000e+00
-6.0000000000000000e+00 6.0000000000000000e+00
-6.0000000000000000e+00 6.0000000000000000e+00
ITEM: ATOMS id type xs ys zs
1 2 0.490233 0.502596 0.5
2 1 0.57308 0.511591 0.5
3 1 0.540115 0.435059 0.5
4 1 0.567439 0.356316 0.5
5 1 0.528985 0.430247 0.5
6 1 0.537018 0.450691 0.5
7 1 0.544803 0.446449 0.5
ITEM: TIMESTEP
560
ITEM: NUMBER OF ATOMS
7
ITEM: BOX BOUNDS ff ff pp
-6.0000000000000000e+00 6.0000000000000000e+00
-6.0000000000000000e+00 6.0000000000000000e+00
-6.0000000000000000e+00 6.0000000000000000e+00
ITEM: ATOMS id type xs ys zs
1 2 0.490233 0.502595 0.5
2 1 0.573079 0.511592 0.5
3 1 0.540116 0.435059 0.5
4 1 0.567438 0.356315 0.5
5 1 0.528985 0.430247 0.5
6 1 0.537018 0.450691 0.5
7 1 0.544803 0.446449 0.5
ITEM: TIMESTEP
570
ITEM: NUMBER OF ATOMS
7
ITEM: BOX BOUNDS ff ff pp
-6.0000000000000000e+00 6.0000000000000000e+00
-6.0000000000000000e+00 6.0000000000000000e+00
-6.0000000000000000e+00 6.0000000000000000e+00
ITEM: ATOMS id type xs ys zs
1 2 0.490232 0.502595 0.5
2 1 0.573078 0.511593 0.5
3 1 0.540117 0.435059 0.5
4 1 0.567436 0.356314 0.5
5 1 0.528986 0.430247 0.5
6 1 0.537019 0.450691 0.5
7 1 0.544804 0.44645 0.5
ITEM: TIMESTEP
580
ITEM: NUMBER OF ATOMS
7
ITEM: BOX BOUNDS ff ff pp
-6.0000000000000000e+00 6.0000000000000000e+00
-6.0000000000000000e+00 6.0000000000000000e+00
-6.0000000000000000e+00 6.0000000000000000e+00
ITEM: ATOMS id type xs ys zs
1 2 0.490231 0.502594 0.5
2 1 0.573077 0.511594 0.5
3 1 0.540118 0.435059 0.5
4 1 0.567434 0.356313 0.5
5 1 0.528986 0.430247 0.5
6 1 0.53702 0.450691 0.5
7 1 0.544804 0.44645 0.5
ITEM: TIMESTEP
590
ITEM: NUMBER OF ATOMS
7
ITEM: BOX BOUNDS ff ff pp
-6.0000000000000000e+00 6.0000000000000000e+00
-6.0000000000000000e+00 6.0000000000000000e+00
-6.0000000000000000e+00 6.0000000000000000e+00
ITEM: ATOMS id type xs ys zs
1 2 0.490231 0.502594 0.5
2 1 0.573076 0.511595 0.5
3 1 0.540119 0.435059 0.5
4 1 0.567433 0.356312 0.5
5 1 0.528987 0.430247 0.5
6 1 0.537021 0.450691 0.5
7 1 0.544804 0.446451 0.5
ITEM: TIMESTEP
600
ITEM: NUMBER OF ATOMS
7
ITEM: BOX BOUNDS ff ff pp
-6.0000000000000000e+00 6.0000000000000000e+00
-6.0000000000000000e+00 6.0000000000000000e+00
-6.0000000000000000e+00 6.0000000000000000e+00
ITEM: ATOMS id type xs ys zs
1 2 0.49023 0.502593 0.5
2 1 0.573075 0.511596 0.5
3 1 0.540121 0.435059 0.5
4 1 0.567431 0.356311 0.5
5 1 0.528987 0.430248 0.5
6 1 0.537022 0.450691 0.5
7 1 0.544804 0.446451 0.5
ITEM: TIMESTEP
610
ITEM: NUMBER OF ATOMS
7
ITEM: BOX BOUNDS ff ff pp
-6.0000000000000000e+00 6.0000000000000000e+00
-6.0000000000000000e+00 6.0000000000000000e+00
-6.0000000000000000e+00 6.0000000000000000e+00
ITEM: ATOMS id type xs ys zs
1 2 0.490229 0.502593 0.5
2 1 0.573074 0.511597 0.5
3 1 0.540122 0.435059 0.5
4 1 0.567429 0.35631 0.5
5 1 0.528988 0.430248 0.5
6 1 0.537023 0.450691 0.5
7 1 0.544805 0.446452 0.5
ITEM: TIMESTEP
620
ITEM: NUMBER OF ATOMS
7
ITEM: BOX BOUNDS ff ff pp
-6.0000000000000000e+00 6.0000000000000000e+00
-6.0000000000000000e+00 6.0000000000000000e+00
-6.0000000000000000e+00 6.0000000000000000e+00
ITEM: ATOMS id type xs ys zs
1 2 0.490229 0.502592 0.5
2 1 0.573074 0.511598 0.5
3 1 0.540123 0.435059 0.5
4 1 0.567428 0.35631 0.5
5 1 0.528988 0.430248 0.5
6 1 0.537024 0.450691 0.5
7 1 0.544805 0.446452 0.5
ITEM: TIMESTEP
630
ITEM: NUMBER OF ATOMS
7
ITEM: BOX BOUNDS ff ff pp
-6.0000000000000000e+00 6.0000000000000000e+00
-6.0000000000000000e+00 6.0000000000000000e+00
-6.0000000000000000e+00 6.0000000000000000e+00
ITEM: ATOMS id type xs ys zs
1 2 0.490228 0.502592 0.5
2 1 0.573073 0.511599 0.5
3 1 0.540125 0.435059 0.5
4 1 0.567426 0.356309 0.5
5 1 0.528989 0.430248 0.5
6 1 0.537025 0.450691 0.5
7 1 0.544805 0.446453 0.5
ITEM: TIMESTEP
640
ITEM: NUMBER OF ATOMS
7
ITEM: BOX BOUNDS ff ff pp
-6.0000000000000000e+00 6.0000000000000000e+00
-6.0000000000000000e+00 6.0000000000000000e+00
-6.0000000000000000e+00 6.0000000000000000e+00
ITEM: ATOMS id type xs ys zs
1 2 0.490227 0.502591 0.5
2 1 0.573072 0.5116 0.5
3 1 0.540126 0.435059 0.5
4 1 0.567425 0.356308 0.5
5 1 0.52899 0.430248 0.5
6 1 0.537026 0.450691 0.5
7 1 0.544805 0.446453 0.5
ITEM: TIMESTEP
650
ITEM: NUMBER OF ATOMS
7
ITEM: BOX BOUNDS ff ff pp
-6.0000000000000000e+00 6.0000000000000000e+00
-6.0000000000000000e+00 6.0000000000000000e+00
-6.0000000000000000e+00 6.0000000000000000e+00
ITEM: ATOMS id type xs ys zs
1 2 0.490226 0.502591 0.5
2 1 0.573071 0.511601 0.5
3 1 0.540127 0.435059 0.5
4 1 0.567424 0.356307 0.5
5 1 0.52899 0.430249 0.5
6 1 0.537026 0.450691 0.5
7 1 0.544806 0.446454 0.5
ITEM: TIMESTEP
660
ITEM: NUMBER OF ATOMS
7
ITEM: BOX BOUNDS ff ff pp
-6.0000000000000000e+00 6.0000000000000000e+00
-6.0000000000000000e+00 6.0000000000000000e+00
-6.0000000000000000e+00 6.0000000000000000e+00
ITEM: ATOMS id type xs ys zs
1 2 0.490226 0.50259 0.5
2 1 0.57307 0.511602 0.5
3 1 0.540129 0.435059 0.5
4 1 0.567422 0.356306 0.5
5 1 0.528991 0.430249 0.5
6 1 0.537028 0.450691 0.5
7 1 0.544806 0.446454 0.5
ITEM: TIMESTEP
670
ITEM: NUMBER OF ATOMS
7
ITEM: BOX BOUNDS ff ff pp
-6.0000000000000000e+00 6.0000000000000000e+00
-6.0000000000000000e+00 6.0000000000000000e+00
-6.0000000000000000e+00 6.0000000000000000e+00
ITEM: ATOMS id type xs ys zs
1 2 0.490225 0.50259 0.5
2 1 0.573069 0.511604 0.5
3 1 0.54013 0.435059 0.5
4 1 0.56742 0.356305 0.5
5 1 0.528991 0.430249 0.5
6 1 0.537029 0.45069 0.5
7 1 0.544806 0.446455 0.5
ITEM: TIMESTEP
680
ITEM: NUMBER OF ATOMS
7
ITEM: BOX BOUNDS ff ff pp
-6.0000000000000000e+00 6.0000000000000000e+00
-6.0000000000000000e+00 6.0000000000000000e+00
-6.0000000000000000e+00 6.0000000000000000e+00
ITEM: ATOMS id type xs ys zs
1 2 0.490224 0.502589 0.5
2 1 0.573068 0.511604 0.5
3 1 0.540131 0.43506 0.5
4 1 0.567419 0.356304 0.5
5 1 0.528992 0.430249 0.5
6 1 0.537029 0.45069 0.5
7 1 0.544806 0.446455 0.5
ITEM: TIMESTEP
690
ITEM: NUMBER OF ATOMS
7
ITEM: BOX BOUNDS ff ff pp
-6.0000000000000000e+00 6.0000000000000000e+00
-6.0000000000000000e+00 6.0000000000000000e+00
-6.0000000000000000e+00 6.0000000000000000e+00
ITEM: ATOMS id type xs ys zs
1 2 0.490224 0.502589 0.5
2 1 0.573068 0.511605 0.5
3 1 0.540132 0.43506 0.5
4 1 0.567417 0.356303 0.5
5 1 0.528992 0.430249 0.5
6 1 0.53703 0.45069 0.5
7 1 0.544807 0.446455 0.5
ITEM: TIMESTEP
700
ITEM: NUMBER OF ATOMS
7
ITEM: BOX BOUNDS ff ff pp
-6.0000000000000000e+00 6.0000000000000000e+00
-6.0000000000000000e+00 6.0000000000000000e+00
-6.0000000000000000e+00 6.0000000000000000e+00
ITEM: ATOMS id type xs ys zs
1 2 0.490223 0.502588 0.5
2 1 0.573066 0.511606 0.5
3 1 0.540134 0.43506 0.5
4 1 0.567415 0.356302 0.5
5 1 0.528993 0.43025 0.5
6 1 0.537031 0.45069 0.5
7 1 0.544807 0.446456 0.5
ITEM: TIMESTEP
710
ITEM: NUMBER OF ATOMS
7
ITEM: BOX BOUNDS ff ff pp
-6.0000000000000000e+00 6.0000000000000000e+00
-6.0000000000000000e+00 6.0000000000000000e+00
-6.0000000000000000e+00 6.0000000000000000e+00