ITEM: TIMESTEP
0
ITEM: NUMBER OF ATOMS
7
ITEM: BOX BOUNDS ff ff pp
-6.0000000000000000e+00 6.0000000000000000e+00
-6.0000000000000000e+00 6.0000000000000000e+00
-6.0000000000000000e+00 6.0000000000000000e+00
ITEM: ATOMS id type xs ys zs
1 2 0.442245 0.515074 0.5
2 1 0.48932 0.570575 0.5
3 1 0.517081 0.503252 0.5
4 1 0.578233 0.457673 0.5
5 1 0.508759 0.478599 0.5
6 1 0.50544 0.510866 0.5
7 1 0.512188 0.49952 0.5
ITEM: TIMESTEP
10
ITEM: NUMBER OF ATOMS
7
ITEM: BOX BOUNDS ff ff pp
-6.0000000000000000e+00 6.0000000000000000e+00
-6.0000000000000000e+00 6.0000000000000000e+00
-6.0000000000000000e+00 6.0000000000000000e+00
ITEM: ATOMS id type xs ys zs
1 2 0.435085 0.514779 0.5
2 1 0.489597 0.579656 0.5
3 1 0.520508 0.502922 0.5
4 1 0.5869 0.452307 0.5
5 1 0.507329 0.476336 0.5
6 1 0.504323 0.508989 0.5
7 1 0.511295 0.497449 0.5
ITEM: TIMESTEP
20
ITEM: NUMBER OF ATOMS
7
ITEM: BOX BOUNDS ff ff pp
-6.0000000000000000e+00 6.0000000000000000e+00
-6.0000000000000000e+00 6.0000000000000000e+00
-6.0000000000000000e+00 6.0000000000000000e+00
ITEM: ATOMS id type xs ys zs
1 2 0.434792 0.515337 0.5
2 1 0.488574 0.579117 0.5
3 1 0.521229 0.502745 0.5
4 1 0.586874 0.45173 0.5
5 1 0.506526 0.474858 0.5
6 1 0.507022 0.510508 0.5
7 1 0.510674 0.49699 0.5
ITEM: TIMESTEP
30
ITEM: NUMBER OF ATOMS
7
ITEM: BOX BOUNDS ff ff pp
-6.0000000000000000e+00 6.0000000000000000e+00
-6.0000000000000000e+00 6.0000000000000000e+00
-6.0000000000000000e+00 6.0000000000000000e+00
ITEM: ATOMS id type xs ys zs
1 2 0.434857 0.515272 0.5
2 1 0.488438 0.579144 0.5
3 1 0.521257 0.502839 0.5
4 1 0.586766 0.451579 0.5
5 1 0.506495 0.474741 0.5
6 1 0.507212 0.510717 0.5
7 1 0.510736 0.496871 0.5
ITEM: TIMESTEP
40
ITEM: NUMBER OF ATOMS
7
ITEM: BOX BOUNDS ff ff pp
-6.0000000000000000e+00 6.0000000000000000e+00
-6.0000000000000000e+00 6.0000000000000000e+00
-6.0000000000000000e+00 6.0000000000000000e+00
ITEM: ATOMS id type xs ys zs
1 2 0.434966 0.515123 0.5
2 1 0.488192 0.579271 0.5
3 1 0.521345 0.502975 0.5
4 1 0.58657 0.451236 0.5
5 1 0.506427 0.474498 0.5
6 1 0.50753 0.511089 0.5
7 1 0.510926 0.496628 0.5
ITEM: TIMESTEP
50
ITEM: NUMBER OF ATOMS
7
ITEM: BOX BOUNDS ff ff pp
-6.0000000000000000e+00 6.0000000000000000e+00
-6.0000000000000000e+00 6.0000000000000000e+00
-6.0000000000000000e+00 6.0000000000000000e+00
ITEM: ATOMS id type xs ys zs
1 2 0.435052 0.515029 0.5
2 1 0.488076 0.579329 0.5
3 1 0.521408 0.503031 0.5
4 1 0.586444 0.450982 0.5
5 1 0.506391 0.474329 0.5
6 1 0.507737 0.511291 0.5
7 1 0.511058 0.496457 0.5
ITEM: TIMESTEP
60
ITEM: NUMBER OF ATOMS
7
ITEM: BOX BOUNDS ff ff pp
-6.0000000000000000e+00 6.0000000000000000e+00
-6.0000000000000000e+00 6.0000000000000000e+00
-6.0000000000000000e+00 6.0000000000000000e+00
ITEM: ATOMS id type xs ys zs
1 2 0.435075 0.515008 0.5
2 1 0.48806 0.579336 0.5
3 1 0.521425 0.503034 0.5
4 1 0.586416 0.450913 0.5
5 1 0.506385 0.474287 0.5
6 1 0.507788 0.511329 0.5
7 1 0.511089 0.496414 0.5
ITEM: TIMESTEP
70
ITEM: NUMBER OF ATOMS
7
ITEM: BOX BOUNDS ff ff pp
-6.0000000000000000e+00 6.0000000000000000e+00
-6.0000000000000000e+00 6.0000000000000000e+00
-6.0000000000000000e+00 6.0000000000000000e+00
ITEM: ATOMS id type xs ys zs
1 2 0.435114 0.514976 0.5
2 1 0.488052 0.579338 0.5
3 1 0.521456 0.503026 0.5
4 1 0.586375 0.450793 0.5
5 1 0.506379 0.474216 0.5
6 1 0.50787 0.511375 0.5
7 1 0.511137 0.496342 0.5
ITEM: TIMESTEP
80
ITEM: NUMBER OF ATOMS
7
ITEM: BOX BOUNDS ff ff pp
-6.0000000000000000e+00 6.0000000000000000e+00
-6.0000000000000000e+00 6.0000000000000000e+00
-6.0000000000000000e+00 6.0000000000000000e+00
ITEM: ATOMS id type xs ys zs
1 2 0.435155 0.514948 0.5
2 1 0.488075 0.579323 0.5
3 1 0.52149 0.502995 0.5
4 1 0.586343 0.450663 0.5
5 1 0.506378 0.474147 0.5
6 1 0.507947 0.511389 0.5
7 1 0.511181 0.49627 0.5
ITEM: TIMESTEP
90
ITEM: NUMBER OF ATOMS
7
ITEM: BOX BOUNDS ff ff pp
-6.0000000000000000e+00 6.0000000000000000e+00
-6.0000000000000000e+00 6.0000000000000000e+00
-6.0000000000000000e+00 6.0000000000000000e+00
ITEM: ATOMS id type xs ys zs
1 2 0.435161 0.514945 0.5
2 1 0.488082 0.579319 0.5
3 1 0.521496 0.502988 0.5
4 1 0.586339 0.450641 0.5
5 1 0.506379 0.474136 0.5
6 1 0.507959 0.511388 0.5
7 1 0.511188 0.496259 0.5
ITEM: TIMESTEP
100
ITEM: NUMBER OF ATOMS
7
ITEM: BOX BOUNDS ff ff pp
-6.0000000000000000e+00 6.0000000000000000e+00
-6.0000000000000000e+00 6.0000000000000000e+00
-6.0000000000000000e+00 6.0000000000000000e+00
ITEM: ATOMS id type xs ys zs
1 2 0.435176 0.514937 0.5
2 1 0.488101 0.579308 0.5
3 1 0.521509 0.50297 0.5
4 1 0.586331 0.450593 0.5
5 1 0.506381 0.474113 0.5
6 1 0.507982 0.511381 0.5
7 1 0.511202 0.496235 0.5
ITEM: TIMESTEP
110
ITEM: NUMBER OF ATOMS
7
ITEM: BOX BOUNDS ff ff pp
-6.0000000000000000e+00 6.0000000000000000e+00
-6.0000000000000000e+00 6.0000000000000000e+00
-6.0000000000000000e+00 6.0000000000000000e+00
ITEM: ATOMS id type xs ys zs
1 2 0.435197 0.514929 0.5
2 1 0.488134 0.579289 0.5
3 1 0.521529 0.502941 0.5
4 1 0.586322 0.450525 0.5
5 1 0.506386 0.474083 0.5
6 1 0.508012 0.511364 0.5
7 1 0.511219 0.496203 0.5
ITEM: TIMESTEP
120
ITEM: NUMBER OF ATOMS
7
ITEM: BOX BOUNDS ff ff pp
-6.0000000000000000e+00 6.0000000000000000e+00
-6.0000000000000000e+00 6.0000000000000000e+00
-6.0000000000000000e+00 6.0000000000000000e+00
ITEM: ATOMS id type xs ys zs
1 2 0.435203 0.514927 0.5
2 1 0.488145 0.579282 0.5
3 1 0.521535 0.502931 0.5
4 1 0.58632 0.450504 0.5
5 1 0.506388 0.474073 0.5
6 1 0.508021 0.511357 0.5
7 1 0.511224 0.496193 0.5
ITEM: TIMESTEP
130
ITEM: NUMBER OF ATOMS
7
ITEM: BOX BOUNDS ff ff pp
-6.0000000000000000e+00 6.0000000000000000e+00
-6.0000000000000000e+00 6.0000000000000000e+00
-6.0000000000000000e+00 6.0000000000000000e+00
ITEM: ATOMS id type xs ys zs
1 2 0.435209 0.514925 0.5
2 1 0.488157 0.579276 0.5
3 1 0.52154 0.502921 0.5
4 1 0.586318 0.450485 0.5
5 1 0.506389 0.474065 0.5
6 1 0.508028 0.51135 0.5
7 1 0.511229 0.496185 0.5
ITEM: TIMESTEP
140
ITEM: NUMBER OF ATOMS
7
ITEM: BOX BOUNDS ff ff pp
-6.0000000000000000e+00 6.0000000000000000e+00
-6.0000000000000000e+00 6.0000000000000000e+00
-6.0000000000000000e+00 6.0000000000000000e+00
ITEM: ATOMS id type xs ys zs
1 2 0.435217 0.514923 0.5
2 1 0.488171 0.579268 0.5
3 1 0.521547 0.502909 0.5
4 1 0.586316 0.450462 0.5
5 1 0.506392 0.474054 0.5
6 1 0.508037 0.511341 0.5
7 1 0.511235 0.496174 0.5
ITEM: TIMESTEP
150
ITEM: NUMBER OF ATOMS
7
ITEM: BOX BOUNDS ff ff pp
-6.0000000000000000e+00 6.0000000000000000e+00
-6.0000000000000000e+00 6.0000000000000000e+00
-6.0000000000000000e+00 6.0000000000000000e+00
ITEM: ATOMS id type xs ys zs
1 2 0.435219 0.514922 0.5
2 1 0.488176 0.579265 0.5
3 1 0.521549 0.502905 0.5
4 1 0.586315 0.450455 0.5
5 1 0.506392 0.474051 0.5
6 1 0.50804 0.511337 0.5
7 1 0.511236 0.49617 0.5
ITEM: TIMESTEP
160
ITEM: NUMBER OF ATOMS
7
ITEM: BOX BOUNDS ff ff pp
-6.0000000000000000e+00 6.0000000000000000e+00
-6.0000000000000000e+00 6.0000000000000000e+00
-6.0000000000000000e+00 6.0000000000000000e+00
ITEM: ATOMS id type xs ys zs
1 2 0.435221 0.514921 0.5
2 1 0.488181 0.579262 0.5
3 1 0.521551 0.502901 0.5
4 1 0.586315 0.450448 0.5
5 1 0.506393 0.474048 0.5
6 1 0.508042 0.511334 0.5
7 1 0.511238 0.496167 0.5
ITEM: TIMESTEP
170
ITEM: NUMBER OF ATOMS
7
ITEM: BOX BOUNDS ff ff pp
-6.0000000000000000e+00 6.0000000000000000e+00
-6.0000000000000000e+00 6.0000000000000000e+00
-6.0000000000000000e+00 6.0000000000000000e+00
ITEM: ATOMS id type xs ys zs
1 2 0.435223 0.514921 0.5
2 1 0.488184 0.579261 0.5
3 1 0.521552 0.502899 0.5
4 1 0.586315 0.450444 0.5
5 1 0.506393 0.474046 0.5
6 1 0.508044 0.511332 0.5
7 1 0.511239 0.496165 0.5
ITEM: TIMESTEP
180
ITEM: NUMBER OF ATOMS
7
ITEM: BOX BOUNDS ff ff pp
-6.0000000000000000e+00 6.0000000000000000e+00
-6.0000000000000000e+00 6.0000000000000000e+00
-6.0000000000000000e+00 6.0000000000000000e+00
ITEM: ATOMS id type xs ys zs
1 2 0.435225 0.514921 0.5
2 1 0.488188 0.579259 0.5
3 1 0.521554 0.502896 0.5
4 1 0.586314 0.450438 0.5
5 1 0.506394 0.474043 0.5
6 1 0.508046 0.51133 0.5
7 1 0.51124 0.496162 0.5
ITEM: TIMESTEP
190
ITEM: NUMBER OF ATOMS
7
ITEM: BOX BOUNDS ff ff pp
-6.0000000000000000e+00 6.0000000000000000e+00
-6.0000000000000000e+00 6.0000000000000000e+00
-6.0000000000000000e+00 6.0000000000000000e+00
ITEM: ATOMS id type xs ys zs
1 2 0.435225 0.514921 0.5
2 1 0.488189 0.579258 0.5
3 1 0.521554 0.502895 0.5
4 1 0.586314 0.450437 0.5
5 1 0.506394 0.474042 0.5
6 1 0.508046 0.511329 0.5
7 1 0.511241 0.496161 0.5
ITEM: TIMESTEP
200
ITEM: NUMBER OF ATOMS
7
ITEM: BOX BOUNDS ff ff pp
-6.0000000000000000e+00 6.0000000000000000e+00
-6.0000000000000000e+00 6.0000000000000000e+00
-6.0000000000000000e+00 6.0000000000000000e+00
ITEM: ATOMS id type xs ys zs
1 2 0.435226 0.514921 0.5
2 1 0.488191 0.579258 0.5
3 1 0.521555 0.502893 0.5
4 1 0.586314 0.450435 0.5
5 1 0.506394 0.474041 0.5
6 1 0.508047 0.511328 0.5
7 1 0.511241 0.496159 0.5
ITEM: TIMESTEP
210
ITEM: NUMBER OF ATOMS
7
ITEM: BOX BOUNDS ff ff pp
-6.0000000000000000e+00 6.0000000000000000e+00
-6.0000000000000000e+00 6.0000000000000000e+00
-6.0000000000000000e+00 6.0000000000000000e+00
ITEM: ATOMS id type xs ys zs
1 2 0.435228 0.514921 0.5
2 1 0.488194 0.579256 0.5
3 1 0.521555 0.502891 0.5
4 1 0.586314 0.450432 0.5
5 1 0.506394 0.474039 0.5
6 1 0.508048 0.511326 0.5
7 1 0.511242 0.496157 0.5
ITEM: TIMESTEP
220
ITEM: NUMBER OF ATOMS
7
ITEM: BOX BOUNDS ff ff pp
-6.0000000000000000e+00 6.0000000000000000e+00
-6.0000000000000000e+00 6.0000000000000000e+00
-6.0000000000000000e+00 6.0000000000000000e+00
ITEM: ATOMS id type xs ys zs
1 2 0.435228 0.514921 0.5
2 1 0.488194 0.579256 0.5
3 1 0.521555 0.502891 0.5
4 1 0.586314 0.450431 0.5
5 1 0.506394 0.474038 0.5
6 1 0.508048 0.511326 0.5
7 1 0.511242 0.496156 0.5
ITEM: TIMESTEP
230
ITEM: NUMBER OF ATOMS
7
ITEM: BOX BOUNDS ff ff pp
-6.0000000000000000e+00 6.0000000000000000e+00
-6.0000000000000000e+00 6.0000000000000000e+00
-6.0000000000000000e+00 6.0000000000000000e+00
ITEM: ATOMS id type xs ys zs
1 2 0.435229 0.514921 0.5
2 1 0.488195 0.579256 0.5
3 1 0.521556 0.50289 0.5
4 1 0.586314 0.45043 0.5
5 1 0.506394 0.474037 0.5
6 1 0.508048 0.511326 0.5
7 1 0.511243 0.496156 0.5
ITEM: TIMESTEP
240
ITEM: NUMBER OF ATOMS
7
ITEM: BOX BOUNDS ff ff pp
-6.0000000000000000e+00 6.0000000000000000e+00
-6.0000000000000000e+00 6.0000000000000000e+00
-6.0000000000000000e+00 6.0000000000000000e+00
ITEM: ATOMS id type xs ys zs
1 2 0.435229 0.514921 0.5
2 1 0.488196 0.579256 0.5
3 1 0.521556 0.50289 0.5
4 1 0.586314 0.45043 0.5
5 1 0.506394 0.474036 0.5
6 1 0.508048 0.511325 0.5
7 1 0.511243 0.496155 0.5
ITEM: TIMESTEP
250
ITEM: NUMBER OF ATOMS
7
ITEM: BOX BOUNDS ff ff pp
-6.0000000000000000e+00 6.0000000000000000e+00
-6.0000000000000000e+00 6.0000000000000000e+00
-6.0000000000000000e+00 6.0000000000000000e+00
ITEM: ATOMS id type xs ys zs
1 2 0.43523 0.514921 0.5
2 1 0.488197 0.579256 0.5
3 1 0.521556 0.502889 0.5
4 1 0.586314 0.450429 0.5
5 1 0.506394 0.474035 0.5
6 1 0.508048 0.511325 0.5
7 1 0.511243 0.496154 0.5
ITEM: TIMESTEP
260
ITEM: NUMBER OF ATOMS
7
ITEM: BOX BOUNDS ff ff pp
-6.0000000000000000e+00 6.0000000000000000e+00
-6.0000000000000000e+00 6.0000000000000000e+00
-6.0000000000000000e+00 6.0000000000000000e+00
ITEM: ATOMS id type xs ys zs
1 2 0.43523 0.514921 0.5
2 1 0.488197 0.579256 0.5
3 1 0.521555 0.502889 0.5
4 1 0.586314 0.450429 0.5
5 1 0.506394 0.474035 0.5
6 1 0.508048 0.511325 0.5
7 1 0.511243 0.496153 0.5
ITEM: TIMESTEP
270
ITEM: NUMBER OF ATOMS
7
ITEM: BOX BOUNDS ff ff pp
-6.0000000000000000e+00 6.0000000000000000e+00
-6.0000000000000000e+00 6.0000000000000000e+00
-6.0000000000000000e+00 6.0000000000000000e+00
ITEM: ATOMS id type xs ys zs
1 2 0.43523 0.514921 0.5
2 1 0.488198 0.579256 0.5
3 1 0.521555 0.502889 0.5
4 1 0.586315 0.450429 0.5
5 1 0.506394 0.474034 0.5
6 1 0.508048 0.511324 0.5
7 1 0.511243 0.496152 0.5
ITEM: TIMESTEP
280
ITEM: NUMBER OF ATOMS
7
ITEM: BOX BOUNDS ff ff pp
-6.0000000000000000e+00 6.0000000000000000e+00
-6.0000000000000000e+00 6.0000000000000000e+00
-6.0000000000000000e+00 6.0000000000000000e+00
ITEM: ATOMS id type xs ys zs
1 2 0.435231 0.514922 0.5
2 1 0.488198 0.579256 0.5
3 1 0.521555 0.502888 0.5
4 1 0.586315 0.450429 0.5
5 1 0.506394 0.474034 0.5
6 1 0.508048 0.511324 0.5
7 1 0.511243 0.496152 0.5
ITEM: TIMESTEP
290
ITEM: NUMBER OF ATOMS
7
ITEM: BOX BOUNDS ff ff pp
-6.0000000000000000e+00 6.0000000000000000e+00
-6.0000000000000000e+00 6.0000000000000000e+00
-6.0000000000000000e+00 6.0000000000000000e+00
ITEM: ATOMS id type xs ys zs
1 2 0.435231 0.514922 0.5
2 1 0.488199 0.579256 0.5
3 1 0.521555 0.502888 0.5
4 1 0.586315 0.450429 0.5
5 1 0.506394 0.474033 0.5
6 1 0.508048 0.511324 0.5
7 1 0.511244 0.496151 0.5
ITEM: TIMESTEP
300
ITEM: NUMBER OF ATOMS
7
ITEM: BOX BOUNDS ff ff pp
-6.0000000000000000e+00 6.0000000000000000e+00
-6.0000000000000000e+00 6.0000000000000000e+00
-6.0000000000000000e+00 6.0000000000000000e+00
ITEM: ATOMS id type xs ys zs
1 2 0.435231 0.514922 0.5
2 1 0.488199 0.579256 0.5
3 1 0.521555 0.502888 0.5
4 1 0.586315 0.45043 0.5
5 1 0.506394 0.474033 0.5
6 1 0.508048 0.511324 0.5
7 1 0.511244 0.496151 0.5
ITEM: TIMESTEP
310
ITEM: NUMBER OF ATOMS
7
ITEM: BOX BOUNDS ff ff pp
-6.0000000000000000e+00 6.0000000000000000e+00
-6.0000000000000000e+00 6.0000000000000000e+00
-6.0000000000000000e+00 6.0000000000000000e+00
ITEM: ATOMS id type xs ys zs
1 2 0.435231 0.514922 0.5
2 1 0.488199 0.579256 0.5
3 1 0.521555 0.502888 0.5
4 1 0.586315 0.45043 0.5
5 1 0.506394 0.474032 0.5
6 1 0.508048 0.511324 0.5
7 1 0.511244 0.49615 0.5
ITEM: TIMESTEP
320
ITEM: NUMBER OF ATOMS
7
ITEM: BOX BOUNDS ff ff pp
-6.0000000000000000e+00 6.0000000000000000e+00
-6.0000000000000000e+00 6.0000000000000000e+00
-6.0000000000000000e+00 6.0000000000000000e+00
ITEM: ATOMS id type xs ys zs
1 2 0.435232 0.514922 0.5
2 1 0.4882 0.579256 0.5
3 1 0.521555 0.502888 0.5
4 1 0.586315 0.45043 0.5
5 1 0.506394 0.474032 0.5
6 1 0.508048 0.511324 0.5
7 1 0.511244 0.49615 0.5
ITEM: TIMESTEP
330
ITEM: NUMBER OF ATOMS
7
ITEM: BOX BOUNDS ff ff pp
-6.0000000000000000e+00 6.0000000000000000e+00
-6.0000000000000000e+00 6.0000000000000000e+00
-6.0000000000000000e+00 6.0000000000000000e+00
ITEM: ATOMS id type xs ys zs
1 2 0.435232 0.514922 0.5
2 1 0.4882 0.579256 0.5
3 1 0.521555 0.502888 0.5
4 1 0.586315 0.45043 0.5
5 1 0.506394 0.474031 0.5
6 1 0.508048 0.511324 0.5
7 1 0.511244 0.496149 0.5
ITEM: TIMESTEP
340
ITEM: NUMBER OF ATOMS
7
ITEM: BOX BOUNDS ff ff pp
-6.0000000000000000e+00 6.0000000000000000e+00
-6.0000000000000000e+00 6.0000000000000000e+00
-6.0000000000000000e+00 6.0000000000000000e+00
ITEM: ATOMS id type xs ys zs
1 2 0.435232 0.514922 0.5
2 1 0.4882 0.579256 0.5
3 1 0.521554 0.502888 0.5
4 1 0.586315 0.45043 0.5
5 1 0.506393 0.474031 0.5
6 1 0.508048 0.511324 0.5
7 1 0.511244 0.496149 0.5
ITEM: TIMESTEP
350
ITEM: NUMBER OF ATOMS
7
ITEM: BOX BOUNDS ff ff pp
-6.0000000000000000e+00 6.0000000000000000e+00
-6.0000000000000000e+00 6.0000000000000000e+00
-6.0000000000000000e+00 6.0000000000000000e+00
ITEM: ATOMS id type xs ys zs
1 2 0.435232 0.514923 0.5
2 1 0.488201 0.579256 0.5
3 1 0.521554 0.502888 0.5
4 1 0.586315 0.45043 0.5
5 1 0.506393 0.474031 0.5
6 1 0.508048 0.511324 0.5
7 1 0.511244 0.496148 0.5
ITEM: TIMESTEP
360
ITEM: NUMBER OF ATOMS
7
ITEM: BOX BOUNDS ff ff pp
-6.0000000000000000e+00 6.0000000000000000e+00
-6.0000000000000000e+00 6.0000000000000000e+00
-6.0000000000000000e+00 6.0000000000000000e+00
ITEM: ATOMS id type xs ys zs
1 2 0.435233 0.514923 0.5
2 1 0.488201 0.579256 0.5
3 1 0.521554 0.502887 0.5
4 1 0.586315 0.450431 0.5
5 1 0.506393 0.47403 0.5
6 1 0.508048 0.511324 0.5
7 1 0.511244 0.496148 0.5
ITEM: TIMESTEP
370
ITEM: NUMBER OF ATOMS
7
ITEM: BOX BOUNDS ff ff pp
-6.0000000000000000e+00 6.0000000000000000e+00
-6.0000000000000000e+00 6.0000000000000000e+00
-6.0000000000000000e+00 6.0000000000000000e+00
ITEM: ATOMS id type xs ys zs
1 2 0.435233 0.514923 0.5
2 1 0.488201 0.579256 0.5
3 1 0.521554 0.502887 0.5
4 1 0.586315 0.450431 0.5
5 1 0.506393 0.47403 0.5
6 1 0.508048 0.511324 0.5
7 1 0.511244 0.496147 0.5
ITEM: TIMESTEP
380
ITEM: NUMBER OF ATOMS
7
ITEM: BOX BOUNDS ff ff pp
-6.0000000000000000e+00 6.0000000000000000e+00
-6.0000000000000000e+00 6.0000000000000000e+00
-6.0000000000000000e+00 6.0000000000000000e+00
ITEM: ATOMS id type xs ys zs
1 2 0.435233 0.514923 0.5
2 1 0.488202 0.579256 0.5
3 1 0.521554 0.502887 0.5
4 1 0.586315 0.450431 0.5
5 1 0.506393 0.474029 0.5
6 1 0.508048 0.511324 0.5
7 1 0.511244 0.496147 0.5
ITEM: TIMESTEP
390
ITEM: NUMBER OF ATOMS
7
ITEM: BOX BOUNDS ff ff pp
-6.0000000000000000e+00 6.0000000000000000e+00
-6.0000000000000000e+00 6.0000000000000000e+00
-6.0000000000000000e+00 6.0000000000000000e+00
ITEM: ATOMS id type xs ys zs
1 2 0.435233 0.514923 0.5
2 1 0.488202 0.579257 0.5
3 1 0.521554 0.502887 0.5
4 1 0.586316 0.450431 0.5
5 1 0.506393 0.474029 0.5
6 1 0.508047 0.511324 0.5
7 1 0.511244 0.496146 0.5
ITEM: TIMESTEP
400
ITEM: NUMBER OF ATOMS
7
ITEM: BOX BOUNDS ff ff pp
-6.0000000000000000e+00 6.0000000000000000e+00
-6.0000000000000000e+00 6.0000000000000000e+00
-6.0000000000000000e+00 6.0000000000000000e+00
ITEM: ATOMS id type xs ys zs
1 2 0.435234 0.514923 0.5
2 1 0.488202 0.579257 0.5
3 1 0.521553 0.502887 0.5
4 1 0.586316 0.450431 0.5
5 1 0.506393 0.474028 0.5
6 1 0.508047 0.511324 0.5
7 1 0.511245 0.496146 0.5
ITEM: TIMESTEP
410
ITEM: NUMBER OF ATOMS
7
ITEM: BOX BOUNDS ff ff pp
-6.0000000000000000e+00 6.0000000000000000e+00
-6.0000000000000000e+00 6.0000000000000000e+00
-6.0000000000000000e+00 6.0000000000000000e+00
ITEM: ATOMS id type xs ys zs
1 2 0.435234 0.514924 0.5
2 1 0.488203 0.579257 0.5
3 1 0.521553 0.502887 0.5
4 1 0.586316 0.450431 0.5
5 1 0.506393 0.474028 0.5
6 1 0.508047 0.511324 0.5
7 1 0.511245 0.496146 0.5
ITEM: TIMESTEP
420
ITEM: NUMBER OF ATOMS
7
ITEM: BOX BOUNDS ff ff pp
-6.0000000000000000e+00 6.0000000000000000e+00
-6.0000000000000000e+00 6.0000000000000000e+00
-6.0000000000000000e+00 6.0000000000000000e+00
ITEM: ATOMS id type xs ys zs
1 2 0.435234 0.514924 0.5
2 1 0.488203 0.579257 0.5
3 1 0.521553 0.502887 0.5
4 1 0.586316 0.450432 0.5
5 1 0.506393 0.474028 0.5
6 1 0.508047 0.511324 0.5
7 1 0.511245 0.496145 0.5
ITEM: TIMESTEP
430
ITEM: NUMBER OF ATOMS
7
ITEM: BOX BOUNDS ff ff pp
-6.0000000000000000e+00 6.0000000000000000e+00
-6.0000000000000000e+00 6.0000000000000000e+00
-6.0000000000000000e+00 6.0000000000000000e+00
ITEM: ATOMS id type xs ys zs
1 2 0.435234 0.514924 0.5
2 1 0.488203 0.579257 0.5
3 1 0.521553 0.502887 0.5
4 1 0.586316 0.450432 0.5
5 1 0.506392 0.474027 0.5
6 1 0.508047 0.511324 0.5
7 1 0.511245 0.496144 0.5
ITEM: TIMESTEP
440
ITEM: NUMBER OF ATOMS
7
ITEM: BOX BOUNDS ff ff pp
-6.0000000000000000e+00 6.0000000000000000e+00
-6.0000000000000000e+00 6.0000000000000000e+00
-6.0000000000000000e+00 6.0000000000000000e+00
ITEM: ATOMS id type xs ys zs
1 2 0.435235 0.514924 0.5
2 1 0.488204 0.579257 0.5
3 1 0.521553 0.502886 0.5
4 1 0.586316 0.450432 0.5
5 1 0.506392 0.474027 0.5
6 1 0.508047 0.511324 0.5
7 1 0.511245 0.496144 0.5
ITEM: TIMESTEP
450
ITEM: NUMBER OF ATOMS
7
ITEM: BOX BOUNDS ff ff pp
-6.0000000000000000e+00 6.0000000000000000e+00
-6.0000000000000000e+00 6.0000000000000000e+00
-6.0000000000000000e+00 6.0000000000000000e+00
ITEM: ATOMS id type xs ys zs
1 2 0.435235 0.514924 0.5
2 1 0.488204 0.579257 0.5
3 1 0.521553 0.502886 0.5
4 1 0.586316 0.450432 0.5
5 1 0.506392 0.474026 0.5
6 1 0.508047 0.511324 0.5
7 1 0.511245 0.496143 0.5
ITEM: TIMESTEP
460
ITEM: NUMBER OF ATOMS
7
ITEM: BOX BOUNDS ff ff pp
-6.0000000000000000e+00 6.0000000000000000e+00
-6.0000000000000000e+00 6.0000000000000000e+00
-6.0000000000000000e+00 6.0000000000000000e+00
ITEM: ATOMS id type xs ys zs
1 2 0.435235 0.514924 0.5
2 1 0.488204 0.579257 0.5
3 1 0.521552 0.502886 0.5
4 1 0.586316 0.450433 0.5
5 1 0.506392 0.474026 0.5
6 1 0.508047 0.511324 0.5
7 1 0.511245 0.496143 0.5
ITEM: TIMESTEP
470
ITEM: NUMBER OF ATOMS
7
ITEM: BOX BOUNDS ff ff pp
-6.0000000000000000e+00 6.0000000000000000e+00
-6.0000000000000000e+00 6.0000000000000000e+00
-6.0000000000000000e+00 6.0000000000000000e+00
ITEM: ATOMS id type xs ys zs
1 2 0.435235 0.514924 0.5
2 1 0.488205 0.579257 0.5
3 1 0.521552 0.502886 0.5
4 1 0.586316 0.450433 0.5
5 1 0.506392 0.474025 0.5
6 1 0.508047 0.511324 0.5
7 1 0.511245 0.496143 0.5
ITEM: TIMESTEP
480
ITEM: NUMBER OF ATOMS
7
ITEM: BOX BOUNDS ff ff pp
-6.0000000000000000e+00 6.0000000000000000e+00
-6.0000000000000000e+00 6.0000000000000000e+00
-6.0000000000000000e+00 6.0000000000000000e+00
ITEM: ATOMS id type xs ys zs
1 2 0.435235 0.514925 0.5
2 1 0.488205 0.579257 0.5
3 1 0.521552 0.502886 0.5
4 1 0.586316 0.450433 0.5
5 1 0.506392 0.474025 0.5
6 1 0.508047 0.511324 0.5
7 1 0.511245 0.496142 0.5
ITEM: TIMESTEP
490
ITEM: NUMBER OF ATOMS
7
ITEM: BOX BOUNDS ff ff pp
-6.0000000000000000e+00 6.0000000000000000e+00
-6.0000000000000000e+00 6.0000000000000000e+00
-6.0000000000000000e+00 6.0000000000000000e+00
ITEM: ATOMS id type xs ys zs
1 2 0.435236 0.514925 0.5
2 1 0.488205 0.579257 0.5
3 1 0.521552 0.502886 0.5
4 1 0.586316 0.450433 0.5
5 1 0.506392 0.474025 0.5
6 1 0.508046 0.511324 0.5
7 1 0.511245 0.496142 0.5
ITEM: TIMESTEP
500
ITEM: NUMBER OF ATOMS
7
ITEM: BOX BOUNDS ff ff pp
-6.0000000000000000e+00 6.0000000000000000e+00
-6.0000000000000000e+00 6.0000000000000000e+00
-6.0000000000000000e+00 6.0000000000000000e+00
ITEM: ATOMS id type xs ys zs
1 2 0.435236 0.514925 0.5
2 1 0.488205 0.579258 0.5
3 1 0.521552 0.502886 0.5
4 1 0.586316 0.450433 0.5
5 1 0.506392 0.474024 0.5
6 1 0.508046 0.511324 0.5
7 1 0.511245 0.496141 0.5
ITEM: TIMESTEP
510
ITEM: NUMBER OF ATOMS
7
ITEM: BOX BOUNDS ff ff pp
-6.0000000000000000e+00 6.0000000000000000e+00
-6.0000000000000000e+00 6.0000000000000000e+00
-6.0000000000000000e+00 6.0000000000000000e+00
ITEM: ATOMS id type xs ys zs
1 2 0.435236 0.514925 0.5
2 1 0.488206 0.579258 0.5
3 1 0.521552 0.502886 0.5
4 1 0.586317 0.450434 0.5
5 1 0.506392 0.474024 0.5
6 1 0.508046 0.511323 0.5
7 1 0.511245 0.496141 0.5
ITEM: TIMESTEP
520
ITEM: NUMBER OF ATOMS
7
ITEM: BOX BOUNDS ff ff pp
-6.0000000000000000e+00 6.0000000000000000e+00
-6.0000000000000000e+00 6.0000000000000000e+00
-6.0000000000000000e+00 6.0000000000000000e+00
ITEM: ATOMS id type xs ys zs
1 2 0.435236 0.514925 0.5
2 1 0.488206 0.579258 0.5
3 1 0.521552 0.502886 0.5
4 1 0.586317 0.450434 0.5
5 1 0.506392 0.474023 0.5
6 1 0.508046 0.511323 0.5
7 1 0.511245 0.49614 0.5
ITEM: TIMESTEP
530
ITEM: NUMBER OF ATOMS
7
ITEM: BOX BOUNDS ff ff pp
-6.0000000000000000e+00 6.0000000000000000e+00
-6.0000000000000000e+00 6.0000000000000000e+00
-6.0000000000000000e+00 6.0000000000000000e+00
ITEM: ATOMS id type xs ys zs
1 2 0.435237 0.514925 0.5
2 1 0.488206 0.579258 0.5
3 1 0.521551 0.502886 0.5
4 1 0.586317 0.450434 0.5
5 1 0.506391 0.474023 0.5
6 1 0.508046 0.511323 0.5
7 1 0.511246 0.49614 0.5
ITEM: TIMESTEP
540
ITEM: NUMBER OF ATOMS
7
ITEM: BOX BOUNDS ff ff pp
-6.0000000000000000e+00 6.0000000000000000e+00
-6.0000000000000000e+00 6.0000000000000000e+00
-6.0000000000000000e+00 6.0000000000000000e+00
ITEM: ATOMS id type xs ys zs
1 2 0.435237 0.514926 0.5
2 1 0.488207 0.579258 0.5
3 1 0.521551 0.502885 0.5
4 1 0.586317 0.450434 0.5
5 1 0.506391 0.474022 0.5
6 1 0.508046 0.511323 0.5
7 1 0.511246 0.496139 0.5
ITEM: TIMESTEP
550
ITEM: NUMBER OF ATOMS
7
ITEM: BOX BOUNDS ff ff pp
-6.0000000000000000e+00 6.0000000000000000e+00
-6.0000000000000000e+00 6.0000000000000000e+00
-6.0000000000000000e+00 6.0000000000000000e+00
ITEM: ATOMS id type xs ys zs
1 2 0.435237 0.514926 0.5
2 1 0.488207 0.579258 0.5
3 1 0.521551 0.502885 0.5
4 1 0.586317 0.450434 0.5
5 1 0.506391 0.474022 0.5
6 1 0.508046 0.511323 0.5
7 1 0.511246 0.496139 0.5
ITEM: TIMESTEP
560
ITEM: NUMBER OF ATOMS
7
ITEM: BOX BOUNDS ff ff pp
-6.0000000000000000e+00 6.0000000000000000e+00
-6.0000000000000000e+00 6.0000000000000000e+00
-6.0000000000000000e+00 6.0000000000000000e+00
ITEM: ATOMS id type xs ys zs
1 2 0.435237 0.514926 0.5
2 1 0.488207 0.579258 0.5
3 1 0.521551 0.502885 0.5
4 1 0.586317 0.450434 0.5
5 1 0.506391 0.474021 0.5
6 1 0.508046 0.511323 0.5
7 1 0.511246 0.496138 0.5
ITEM: TIMESTEP
570
ITEM: NUMBER OF ATOMS
7
ITEM: BOX BOUNDS ff ff pp
-6.0000000000000000e+00 6.0000000000000000e+00
-6.0000000000000000e+00 6.0000000000000000e+00
-6.0000000000000000e+00 6.0000000000000000e+00
ITEM: ATOMS id type xs ys zs
1 2 0.435238 0.514926 0.5
2 1 0.488208 0.579258 0.5
3 1 0.521551 0.502885 0.5
4 1 0.586317 0.450435 0.5
5 1 0.506391 0.474021 0.5
6 1 0.508046 0.511323 0.5
7 1 0.511246 0.496138 0.5
ITEM: TIMESTEP
580
ITEM: NUMBER OF ATOMS
7
ITEM: BOX BOUNDS ff ff pp
-6.0000000000000000e+00 6.0000000000000000e+00
-6.0000000000000000e+00 6.0000000000000000e+00
-6.0000000000000000e+00 6.0000000000000000e+00
ITEM: ATOMS id type xs ys zs
1 2 0.435238 0.514926 0.5
2 1 0.488208 0.579258 0.5
3 1 0.521551 0.502885 0.5
4 1 0.586317 0.450435 0.5
5 1 0.506391 0.474021 0.5
6 1 0.508046 0.511323 0.5
7 1 0.511246 0.496137 0.5
ITEM: TIMESTEP
590
ITEM: NUMBER OF ATOMS
7
ITEM: BOX BOUNDS ff ff pp
-6.0000000000000000e+00 6.0000000000000000e+00
-6.0000000000000000e+00 6.0000000000000000e+00
-6.0000000000000000e+00 6.0000000000000000e+00
ITEM: ATOMS id type xs ys zs
1 2 0.435238 0.514926 0.5
2 1 0.488208 0.579258 0.5
3 1 0.52155 0.502885 0.5
4 1 0.586317 0.450435 0.5
5 1 0.506391 0.47402 0.5
6 1 0.508045 0.511323 0.5
7 1 0.511246 0.496137 0.5
ITEM: TIMESTEP
600
ITEM: NUMBER OF ATOMS
7
ITEM: BOX BOUNDS ff ff pp
-6.0000000000000000e+00 6.0000000000000000e+00
-6.0000000000000000e+00 6.0000000000000000e+00
-6.0000000000000000e+00 6.0000000000000000e+00
ITEM: ATOMS id type xs ys zs
1 2 0.435238 0.514926 0.5
2 1 0.488209 0.579259 0.5
3 1 0.52155 0.502885 0.5
4 1 0.586317 0.450435 0.5
5 1 0.506391 0.47402 0.5
6 1 0.508045 0.511323 0.5
7 1 0.511246 0.496136 0.5
ITEM: TIMESTEP
610
ITEM: NUMBER OF ATOMS
7
ITEM: BOX BOUNDS ff ff pp
-6.0000000000000000e+00 6.0000000000000000e+00
-6.0000000000000000e+00 6.0000000000000000e+00
-6.0000000000000000e+00 6.0000000000000000e+00
ITEM: ATOMS id type xs ys zs
1 2 0.435239 0.514927 0.5
2 1 0.488209 0.579259 0.5
3 1 0.52155 0.502885 0.5
4 1 0.586317 0.450435 0.5
5 1 0.506391 0.474019 0.5
6 1 0.508045 0.511323 0.5
7 1 0.511246 0.496136 0.5
ITEM: TIMESTEP
620
ITEM: NUMBER OF ATOMS
7
ITEM: BOX BOUNDS ff ff pp
-6.0000000000000000e+00 6.0000000000000000e+00
-6.0000000000000000e+00 6.0000000000000000e+00
-6.0000000000000000e+00 6.0000000000000000e+00
ITEM: ATOMS id type xs ys zs
1 2 0.435239 0.514927 0.5
2 1 0.488209 0.579259 0.5
3 1 0.52155 0.502884 0.5
4 1 0.586317 0.450436 0.5
5 1 0.506391 0.474019 0.5
6 1 0.508045 0.511323 0.5
7 1 0.511246 0.496135 0.5
ITEM: TIMESTEP
630
ITEM: NUMBER OF ATOMS
7
ITEM: BOX BOUNDS ff ff pp
-6.0000000000000000e+00 6.0000000000000000e+00
-6.0000000000000000e+00 6.0000000000000000e+00
-6.0000000000000000e+00 6.0000000000000000e+00
ITEM: ATOMS id type xs ys zs
1 2 0.435239 0.514927 0.5
2 1 0.48821 0.579259 0.5
3 1 0.52155 0.502884 0.5
4 1 0.586318 0.450436 0.5
5 1 0.50639 0.474018 0.5
6 1 0.508045 0.511323 0.5
7 1 0.511246 0.496135 0.5
ITEM: TIMESTEP
640
ITEM: NUMBER OF ATOMS
7
ITEM: BOX BOUNDS ff ff pp
-6.0000000000000000e+00 6.0000000000000000e+00
-6.0000000000000000e+00 6.0000000000000000e+00
-6.0000000000000000e+00 6.0000000000000000e+00
ITEM: ATOMS id type xs ys zs
1 2 0.435239 0.514927 0.5
2 1 0.48821 0.579259 0.5
3 1 0.52155 0.502884 0.5
4 1 0.586318 0.450436 0.5
5 1 0.50639 0.474018 0.5
6 1 0.508045 0.511323 0.5
7 1 0.511246 0.496134 0.5
ITEM: TIMESTEP
650
ITEM: NUMBER OF ATOMS
7
ITEM: BOX BOUNDS ff ff pp
-6.0000000000000000e+00 6.0000000000000000e+00
-6.0000000000000000e+00 6.0000000000000000e+00
-6.0000000000000000e+00 6.0000000000000000e+00
ITEM: ATOMS id type xs ys zs
1 2 0.435239 0.514927 0.5
2 1 0.48821 0.579259 0.5
3 1 0.52155 0.502884 0.5
4 1 0.586318 0.450436 0.5
5 1 0.50639 0.474018 0.5
6 1 0.508045 0.511323 0.5
7 1 0.511247 0.496134 0.5
ITEM: TIMESTEP
660
ITEM: NUMBER OF ATOMS
7
ITEM: BOX BOUNDS ff ff pp
-6.0000000000000000e+00 6.0000000000000000e+00
-6.0000000000000000e+00 6.0000000000000000e+00
-6.0000000000000000e+00 6.0000000000000000e+00
ITEM: ATOMS id type xs ys zs
1 2 0.43524 0.514927 0.5
2 1 0.48821 0.579259 0.5
3 1 0.521549 0.502884 0.5
4 1 0.586318 0.450436 0.5
5 1 0.50639 0.474017 0.5
6 1 0.508045 0.511323 0.5
7 1 0.511247 0.496134 0.5
ITEM: TIMESTEP
670
ITEM: NUMBER OF ATOMS
7
ITEM: BOX BOUNDS ff ff pp
-6.0000000000000000e+00 6.0000000000000000e+00
-6.0000000000000000e+00 6.0000000000000000e+00
-6.0000000000000000e+00 6.0000000000000000e+00
ITEM: ATOMS id type xs ys zs
1 2 0.43524 0.514928 0.5
2 1 0.488211 0.579259 0.5
3 1 0.521549 0.502884 0.5
4 1 0.586318 0.450437 0.5
5 1 0.50639 0.474016 0.5
6 1 0.508045 0.511323 0.5
7 1 0.511247 0.496133 0.5
ITEM: TIMESTEP
680
ITEM: NUMBER OF ATOMS
7
ITEM: BOX BOUNDS ff ff pp
-6.0000000000000000e+00 6.0000000000000000e+00
-6.0000000000000000e+00 6.0000000000000000e+00
-6.0000000000000000e+00 6.0000000000000000e+00
ITEM: ATOMS id type xs ys zs
1 2 0.43524 0.514928 0.5
2 1 0.488211 0.579259 0.5
3 1 0.521549 0.502884 0.5
4 1 0.586318 0.450437 0.5
5 1 0.50639 0.474016 0.5
6 1 0.508045 0.511323 0.5
7 1 0.511247 0.496133 0.5
ITEM: TIMESTEP
690
ITEM: NUMBER OF ATOMS
7
ITEM: BOX BOUNDS ff ff pp
-6.0000000000000000e+00 6.0000000000000000e+00
-6.0000000000000000e+00 6.0000000000000000e+00
-6.0000000000000000e+00 6.0000000000000000e+00
ITEM: ATOMS id type xs ys zs
1 2 0.43524 0.514928 0.5
2 1 0.488211 0.579259 0.5
3 1 0.521549 0.502884 0.5
4 1 0.586318 0.450437 0.5
5 1 0.50639 0.474016 0.5
6 1 0.508044 0.511323 0.5
7 1 0.511247 0.496132 0.5
ITEM: TIMESTEP
700
ITEM: NUMBER OF ATOMS
7
ITEM: BOX BOUNDS ff ff pp
-6.0000000000000000e+00 6.0000000000000000e+00
-6.0000000000000000e+00 6.0000000000000000e+00
-6.0000000000000000e+00 6.0000000000000000e+00
ITEM: ATOMS id type xs ys zs
1 2 0.435241 0.514928 0.5
2 1 0.488212 0.579259 0.5
3 1 0.521549 0.502884 0.5
4 1 0.586318 0.450437 0.5
5 1 0.50639 0.474015 0.5
6 1 0.508044 0.511323 0.5
7 1 0.511247 0.496131 0.5
ITEM: TIMESTEP
710
ITEM: NUMBER OF ATOMS
7
ITEM: BOX BOUNDS ff ff pp
-6.0000000000000000e+00 6.0000000000000000e+00
-6.0000000000000000e+00 6.0000000000000000e+00