ITEM: TIMESTEP
0
ITEM: NUMBER OF ATOMS
7
ITEM: BOX BOUNDS ff ff pp
-6.0000000000000000e+00 6.0000000000000000e+00
-6.0000000000000000e+00 6.0000000000000000e+00
-6.0000000000000000e+00 6.0000000000000000e+00
ITEM: ATOMS id type xs ys zs
1 2 0.478342 0.505653 0.5
2 1 0.548078 0.526466 0.5
3 1 0.534711 0.454881 0.5
4 1 0.569732 0.387128 0.5
5 1 0.523358 0.44293 0.5
6 1 0.529092 0.467606 0.5
7 1 0.5344 0.461027 0.5
ITEM: TIMESTEP
10
ITEM: NUMBER OF ATOMS
7
ITEM: BOX BOUNDS ff ff pp
-6.0000000000000000e+00 6.0000000000000000e+00
-6.0000000000000000e+00 6.0000000000000000e+00
-6.0000000000000000e+00 6.0000000000000000e+00
ITEM: ATOMS id type xs ys zs
1 2 0.471685 0.508301 0.5
2 1 0.552111 0.533878 0.5
3 1 0.532047 0.452037 0.5
4 1 0.57506 0.379801 0.5
5 1 0.522183 0.444293 0.5
6 1 0.526594 0.467235 0.5
7 1 0.536446 0.462941 0.5
ITEM: TIMESTEP
20
ITEM: NUMBER OF ATOMS
7
ITEM: BOX BOUNDS ff ff pp
-6.0000000000000000e+00 6.0000000000000000e+00
-6.0000000000000000e+00 6.0000000000000000e+00
-6.0000000000000000e+00 6.0000000000000000e+00
ITEM: ATOMS id type xs ys zs
1 2 0.471452 0.509091 0.5
2 1 0.551338 0.533107 0.5
3 1 0.532333 0.451953 0.5
4 1 0.575268 0.380333 0.5
5 1 0.522784 0.445059 0.5
6 1 0.526616 0.466734 0.5
7 1 0.53544 0.463787 0.5
ITEM: TIMESTEP
30
ITEM: NUMBER OF ATOMS
7
ITEM: BOX BOUNDS ff ff pp
-6.0000000000000000e+00 6.0000000000000000e+00
-6.0000000000000000e+00 6.0000000000000000e+00
-6.0000000000000000e+00 6.0000000000000000e+00
ITEM: ATOMS id type xs ys zs
1 2 0.471471 0.509108 0.5
2 1 0.551278 0.533088 0.5
3 1 0.53239 0.451912 0.5
4 1 0.575268 0.380395 0.5
5 1 0.522765 0.445071 0.5
6 1 0.52659 0.466767 0.5
7 1 0.53539 0.463864 0.5
ITEM: TIMESTEP
40
ITEM: NUMBER OF ATOMS
7
ITEM: BOX BOUNDS ff ff pp
-6.0000000000000000e+00 6.0000000000000000e+00
-6.0000000000000000e+00 6.0000000000000000e+00
-6.0000000000000000e+00 6.0000000000000000e+00
ITEM: ATOMS id type xs ys zs
1 2 0.471399 0.50915 0.5
2 1 0.551201 0.533146 0.5
3 1 0.53242 0.451964 0.5
4 1 0.575307 0.380472 0.5
5 1 0.522733 0.445119 0.5
6 1 0.52655 0.466798 0.5
7 1 0.535325 0.463936 0.5
ITEM: TIMESTEP
50
ITEM: NUMBER OF ATOMS
7
ITEM: BOX BOUNDS ff ff pp
-6.0000000000000000e+00 6.0000000000000000e+00
-6.0000000000000000e+00 6.0000000000000000e+00
-6.0000000000000000e+00 6.0000000000000000e+00
ITEM: ATOMS id type xs ys zs
1 2 0.471332 0.50917 0.5
2 1 0.551119 0.533218 0.5
3 1 0.53241 0.452021 0.5
4 1 0.575334 0.380555 0.5
5 1 0.522709 0.445169 0.5
6 1 0.526522 0.466849 0.5
7 1 0.535285 0.463998 0.5
ITEM: TIMESTEP
60
ITEM: NUMBER OF ATOMS
7
ITEM: BOX BOUNDS ff ff pp
-6.0000000000000000e+00 6.0000000000000000e+00
-6.0000000000000000e+00 6.0000000000000000e+00
-6.0000000000000000e+00 6.0000000000000000e+00
ITEM: ATOMS id type xs ys zs
1 2 0.47131 0.509175 0.5
2 1 0.551092 0.533243 0.5
3 1 0.532404 0.45204 0.5
4 1 0.575342 0.380584 0.5
5 1 0.522703 0.445185 0.5
6 1 0.526512 0.466867 0.5
7 1 0.535273 0.464019 0.5
ITEM: TIMESTEP
70
ITEM: NUMBER OF ATOMS
7
ITEM: BOX BOUNDS ff ff pp
-6.0000000000000000e+00 6.0000000000000000e+00
-6.0000000000000000e+00 6.0000000000000000e+00
-6.0000000000000000e+00 6.0000000000000000e+00
ITEM: ATOMS id type xs ys zs
1 2 0.471267 0.509185 0.5
2 1 0.551036 0.533292 0.5
3 1 0.532392 0.452079 0.5
4 1 0.575357 0.380639 0.5
5 1 0.52269 0.445219 0.5
6 1 0.526493 0.466903 0.5
7 1 0.535251 0.46406 0.5
ITEM: TIMESTEP
80
ITEM: NUMBER OF ATOMS
7
ITEM: BOX BOUNDS ff ff pp
-6.0000000000000000e+00 6.0000000000000000e+00
-6.0000000000000000e+00 6.0000000000000000e+00
-6.0000000000000000e+00 6.0000000000000000e+00
ITEM: ATOMS id type xs ys zs
1 2 0.471211 0.509196 0.5
2 1 0.550965 0.533355 0.5
3 1 0.532377 0.452128 0.5
4 1 0.575375 0.380709 0.5
5 1 0.522676 0.445263 0.5
6 1 0.526468 0.466948 0.5
7 1 0.535224 0.464112 0.5
ITEM: TIMESTEP
90
ITEM: NUMBER OF ATOMS
7
ITEM: BOX BOUNDS ff ff pp
-6.0000000000000000e+00 6.0000000000000000e+00
-6.0000000000000000e+00 6.0000000000000000e+00
-6.0000000000000000e+00 6.0000000000000000e+00
ITEM: ATOMS id type xs ys zs
1 2 0.471201 0.509198 0.5
2 1 0.550952 0.533366 0.5
3 1 0.532374 0.452138 0.5
4 1 0.575378 0.380722 0.5
5 1 0.522673 0.445271 0.5
6 1 0.526464 0.466957 0.5
7 1 0.53522 0.464121 0.5
ITEM: TIMESTEP
100
ITEM: NUMBER OF ATOMS
7
ITEM: BOX BOUNDS ff ff pp
-6.0000000000000000e+00 6.0000000000000000e+00
-6.0000000000000000e+00 6.0000000000000000e+00
-6.0000000000000000e+00 6.0000000000000000e+00
ITEM: ATOMS id type xs ys zs
1 2 0.471177 0.509202 0.5
2 1 0.550921 0.533393 0.5
3 1 0.532368 0.452158 0.5
4 1 0.575385 0.38075 0.5
5 1 0.522668 0.44529 0.5
6 1 0.526454 0.466976 0.5
7 1 0.535209 0.464144 0.5
ITEM: TIMESTEP
110
ITEM: NUMBER OF ATOMS
7
ITEM: BOX BOUNDS ff ff pp
-6.0000000000000000e+00 6.0000000000000000e+00
-6.0000000000000000e+00 6.0000000000000000e+00
-6.0000000000000000e+00 6.0000000000000000e+00
ITEM: ATOMS id type xs ys zs
1 2 0.471142 0.509207 0.5
2 1 0.550876 0.533433 0.5
3 1 0.532361 0.45219 0.5
4 1 0.575394 0.380791 0.5
5 1 0.52266 0.445318 0.5
6 1 0.52644 0.467004 0.5
7 1 0.535193 0.464177 0.5
ITEM: TIMESTEP
120
ITEM: NUMBER OF ATOMS
7
ITEM: BOX BOUNDS ff ff pp
-6.0000000000000000e+00 6.0000000000000000e+00
-6.0000000000000000e+00 6.0000000000000000e+00
-6.0000000000000000e+00 6.0000000000000000e+00
ITEM: ATOMS id type xs ys zs
1 2 0.47113 0.509209 0.5
2 1 0.55086 0.533446 0.5
3 1 0.532359 0.4522 0.5
4 1 0.575396 0.380804 0.5
5 1 0.522658 0.445327 0.5
6 1 0.526436 0.467014 0.5
7 1 0.535188 0.464188 0.5
ITEM: TIMESTEP
130
ITEM: NUMBER OF ATOMS
7
ITEM: BOX BOUNDS ff ff pp
-6.0000000000000000e+00 6.0000000000000000e+00
-6.0000000000000000e+00 6.0000000000000000e+00
-6.0000000000000000e+00 6.0000000000000000e+00
ITEM: ATOMS id type xs ys zs
1 2 0.471119 0.50921 0.5
2 1 0.550846 0.533459 0.5
3 1 0.532358 0.452209 0.5
4 1 0.575397 0.380815 0.5
5 1 0.522656 0.445335 0.5
6 1 0.526433 0.467022 0.5
7 1 0.535183 0.464198 0.5
ITEM: TIMESTEP
140
ITEM: NUMBER OF ATOMS
7
ITEM: BOX BOUNDS ff ff pp
-6.0000000000000000e+00 6.0000000000000000e+00
-6.0000000000000000e+00 6.0000000000000000e+00
-6.0000000000000000e+00 6.0000000000000000e+00
ITEM: ATOMS id type xs ys zs
1 2 0.471104 0.509211 0.5
2 1 0.550826 0.533476 0.5
3 1 0.532358 0.452222 0.5
4 1 0.575397 0.380827 0.5
5 1 0.522654 0.445346 0.5
6 1 0.52643 0.467033 0.5
7 1 0.535178 0.464212 0.5
ITEM: TIMESTEP
150
ITEM: NUMBER OF ATOMS
7
ITEM: BOX BOUNDS ff ff pp
-6.0000000000000000e+00 6.0000000000000000e+00
-6.0000000000000000e+00 6.0000000000000000e+00
-6.0000000000000000e+00 6.0000000000000000e+00
ITEM: ATOMS id type xs ys zs
1 2 0.4711 0.509211 0.5
2 1 0.55082 0.533481 0.5
3 1 0.532359 0.452226 0.5
4 1 0.575397 0.380831 0.5
5 1 0.522654 0.44535 0.5
6 1 0.526429 0.467036 0.5
7 1 0.535176 0.464216 0.5
ITEM: TIMESTEP
160
ITEM: NUMBER OF ATOMS
7
ITEM: BOX BOUNDS ff ff pp
-6.0000000000000000e+00 6.0000000000000000e+00
-6.0000000000000000e+00 6.0000000000000000e+00
-6.0000000000000000e+00 6.0000000000000000e+00
ITEM: ATOMS id type xs ys zs
1 2 0.471094 0.50921 0.5
2 1 0.550813 0.533487 0.5
3 1 0.53236 0.45223 0.5
4 1 0.575395 0.380833 0.5
5 1 0.522654 0.445354 0.5
6 1 0.526429 0.46704 0.5
7 1 0.535174 0.464221 0.5
ITEM: TIMESTEP
170
ITEM: NUMBER OF ATOMS
7
ITEM: BOX BOUNDS ff ff pp
-6.0000000000000000e+00 6.0000000000000000e+00
-6.0000000000000000e+00 6.0000000000000000e+00
-6.0000000000000000e+00 6.0000000000000000e+00
ITEM: ATOMS id type xs ys zs
1 2 0.471091 0.50921 0.5
2 1 0.550808 0.533491 0.5
3 1 0.532362 0.452232 0.5
4 1 0.575394 0.380834 0.5
5 1 0.522654 0.445356 0.5
6 1 0.526429 0.467042 0.5
7 1 0.535174 0.464224 0.5
ITEM: TIMESTEP
180
ITEM: NUMBER OF ATOMS
7
ITEM: BOX BOUNDS ff ff pp
-6.0000000000000000e+00 6.0000000000000000e+00
-6.0000000000000000e+00 6.0000000000000000e+00
-6.0000000000000000e+00 6.0000000000000000e+00
ITEM: ATOMS id type xs ys zs
1 2 0.471086 0.509209 0.5
2 1 0.550801 0.533497 0.5
3 1 0.532364 0.452236 0.5
4 1 0.575391 0.380835 0.5
5 1 0.522655 0.445359 0.5
6 1 0.526431 0.467045 0.5
7 1 0.535173 0.464228 0.5
ITEM: TIMESTEP
190
ITEM: NUMBER OF ATOMS
7
ITEM: BOX BOUNDS ff ff pp
-6.0000000000000000e+00 6.0000000000000000e+00
-6.0000000000000000e+00 6.0000000000000000e+00
-6.0000000000000000e+00 6.0000000000000000e+00
ITEM: ATOMS id type xs ys zs
1 2 0.471085 0.509208 0.5
2 1 0.550799 0.533499 0.5
3 1 0.532365 0.452237 0.5
4 1 0.57539 0.380835 0.5
5 1 0.522655 0.44536 0.5
6 1 0.526431 0.467045 0.5
7 1 0.535172 0.46423 0.5
ITEM: TIMESTEP
200
ITEM: NUMBER OF ATOMS
7
ITEM: BOX BOUNDS ff ff pp
-6.0000000000000000e+00 6.0000000000000000e+00
-6.0000000000000000e+00 6.0000000000000000e+00
-6.0000000000000000e+00 6.0000000000000000e+00
ITEM: ATOMS id type xs ys zs
1 2 0.471082 0.509207 0.5
2 1 0.550795 0.533502 0.5
3 1 0.532367 0.452239 0.5
4 1 0.575388 0.380834 0.5
5 1 0.522656 0.445362 0.5
6 1 0.526432 0.467047 0.5
7 1 0.535172 0.464232 0.5
ITEM: TIMESTEP
210
ITEM: NUMBER OF ATOMS
7
ITEM: BOX BOUNDS ff ff pp
-6.0000000000000000e+00 6.0000000000000000e+00
-6.0000000000000000e+00 6.0000000000000000e+00
-6.0000000000000000e+00 6.0000000000000000e+00
ITEM: ATOMS id type xs ys zs
1 2 0.471078 0.509205 0.5
2 1 0.550788 0.533507 0.5
3 1 0.532372 0.452242 0.5
4 1 0.575383 0.380831 0.5
5 1 0.522658 0.445365 0.5
6 1 0.526435 0.467049 0.5
7 1 0.535172 0.464236 0.5
ITEM: TIMESTEP
220
ITEM: NUMBER OF ATOMS
7
ITEM: BOX BOUNDS ff ff pp
-6.0000000000000000e+00 6.0000000000000000e+00
-6.0000000000000000e+00 6.0000000000000000e+00
-6.0000000000000000e+00 6.0000000000000000e+00
ITEM: ATOMS id type xs ys zs
1 2 0.471077 0.509204 0.5
2 1 0.550787 0.533509 0.5
3 1 0.532373 0.452242 0.5
4 1 0.575381 0.38083 0.5
5 1 0.522658 0.445365 0.5
6 1 0.526436 0.467049 0.5
7 1 0.535172 0.464237 0.5
ITEM: TIMESTEP
230
ITEM: NUMBER OF ATOMS
7
ITEM: BOX BOUNDS ff ff pp
-6.0000000000000000e+00 6.0000000000000000e+00
-6.0000000000000000e+00 6.0000000000000000e+00
-6.0000000000000000e+00 6.0000000000000000e+00
ITEM: ATOMS id type xs ys zs
1 2 0.471075 0.509203 0.5
2 1 0.550784 0.533511 0.5
3 1 0.532375 0.452243 0.5
4 1 0.575379 0.380829 0.5
5 1 0.522659 0.445366 0.5
6 1 0.526438 0.46705 0.5
7 1 0.535172 0.464238 0.5
ITEM: TIMESTEP
240
ITEM: NUMBER OF ATOMS
7
ITEM: BOX BOUNDS ff ff pp
-6.0000000000000000e+00 6.0000000000000000e+00
-6.0000000000000000e+00 6.0000000000000000e+00
-6.0000000000000000e+00 6.0000000000000000e+00
ITEM: ATOMS id type xs ys zs
1 2 0.471073 0.509202 0.5
2 1 0.55078 0.533514 0.5
3 1 0.532379 0.452245 0.5
4 1 0.575376 0.380826 0.5
5 1 0.52266 0.445368 0.5
6 1 0.52644 0.467051 0.5
7 1 0.535173 0.464241 0.5
ITEM: TIMESTEP
250
ITEM: NUMBER OF ATOMS
7
ITEM: BOX BOUNDS ff ff pp
-6.0000000000000000e+00 6.0000000000000000e+00
-6.0000000000000000e+00 6.0000000000000000e+00
-6.0000000000000000e+00 6.0000000000000000e+00
ITEM: ATOMS id type xs ys zs
1 2 0.471071 0.5092 0.5
2 1 0.550777 0.533517 0.5
3 1 0.532382 0.452246 0.5
4 1 0.575372 0.380823 0.5
5 1 0.522662 0.445369 0.5
6 1 0.526443 0.467051 0.5
7 1 0.535173 0.464243 0.5
ITEM: TIMESTEP
260
ITEM: NUMBER OF ATOMS
7
ITEM: BOX BOUNDS ff ff pp
-6.0000000000000000e+00 6.0000000000000000e+00
-6.0000000000000000e+00 6.0000000000000000e+00
-6.0000000000000000e+00 6.0000000000000000e+00
ITEM: ATOMS id type xs ys zs
1 2 0.471069 0.509199 0.5
2 1 0.550775 0.533518 0.5
3 1 0.532384 0.452246 0.5
4 1 0.57537 0.380821 0.5
5 1 0.522663 0.445369 0.5
6 1 0.526444 0.467052 0.5
7 1 0.535173 0.464244 0.5
ITEM: TIMESTEP
270
ITEM: NUMBER OF ATOMS
7
ITEM: BOX BOUNDS ff ff pp
-6.0000000000000000e+00 6.0000000000000000e+00
-6.0000000000000000e+00 6.0000000000000000e+00
-6.0000000000000000e+00 6.0000000000000000e+00
ITEM: ATOMS id type xs ys zs
1 2 0.471068 0.509197 0.5
2 1 0.550772 0.533521 0.5
3 1 0.532387 0.452247 0.5
4 1 0.575366 0.380818 0.5
5 1 0.522664 0.44537 0.5
6 1 0.526446 0.467052 0.5
7 1 0.535174 0.464245 0.5
ITEM: TIMESTEP
280
ITEM: NUMBER OF ATOMS
7
ITEM: BOX BOUNDS ff ff pp
-6.0000000000000000e+00 6.0000000000000000e+00
-6.0000000000000000e+00 6.0000000000000000e+00
-6.0000000000000000e+00 6.0000000000000000e+00
ITEM: ATOMS id type xs ys zs
1 2 0.471066 0.509196 0.5
2 1 0.550769 0.533523 0.5
3 1 0.53239 0.452248 0.5
4 1 0.575363 0.380816 0.5
5 1 0.522665 0.445371 0.5
6 1 0.526448 0.467052 0.5
7 1 0.535174 0.464246 0.5
ITEM: TIMESTEP
290
ITEM: NUMBER OF ATOMS
7
ITEM: BOX BOUNDS ff ff pp
-6.0000000000000000e+00 6.0000000000000000e+00
-6.0000000000000000e+00 6.0000000000000000e+00
-6.0000000000000000e+00 6.0000000000000000e+00
ITEM: ATOMS id type xs ys zs
1 2 0.471065 0.509195 0.5
2 1 0.550768 0.533524 0.5
3 1 0.532392 0.452249 0.5
4 1 0.575361 0.380814 0.5
5 1 0.522666 0.445372 0.5
6 1 0.52645 0.467053 0.5
7 1 0.535174 0.464247 0.5
ITEM: TIMESTEP
300
ITEM: NUMBER OF ATOMS
7
ITEM: BOX BOUNDS ff ff pp
-6.0000000000000000e+00 6.0000000000000000e+00
-6.0000000000000000e+00 6.0000000000000000e+00
-6.0000000000000000e+00 6.0000000000000000e+00
ITEM: ATOMS id type xs ys zs
1 2 0.471063 0.509194 0.5
2 1 0.550765 0.533526 0.5
3 1 0.532395 0.452249 0.5
4 1 0.575357 0.380811 0.5
5 1 0.522667 0.445373 0.5
6 1 0.526452 0.467053 0.5
7 1 0.535175 0.464249 0.5
ITEM: TIMESTEP
310
ITEM: NUMBER OF ATOMS
7
ITEM: BOX BOUNDS ff ff pp
-6.0000000000000000e+00 6.0000000000000000e+00
-6.0000000000000000e+00 6.0000000000000000e+00
-6.0000000000000000e+00 6.0000000000000000e+00
ITEM: ATOMS id type xs ys zs
1 2 0.471062 0.509192 0.5
2 1 0.550763 0.533528 0.5
3 1 0.532397 0.45225 0.5
4 1 0.575355 0.380808 0.5
5 1 0.522668 0.445373 0.5
6 1 0.526454 0.467053 0.5
7 1 0.535175 0.46425 0.5
ITEM: TIMESTEP
320
ITEM: NUMBER OF ATOMS
7
ITEM: BOX BOUNDS ff ff pp
-6.0000000000000000e+00 6.0000000000000000e+00
-6.0000000000000000e+00 6.0000000000000000e+00
-6.0000000000000000e+00 6.0000000000000000e+00
ITEM: ATOMS id type xs ys zs
1 2 0.471061 0.509191 0.5
2 1 0.550761 0.533529 0.5
3 1 0.5324 0.452251 0.5
4 1 0.575353 0.380806 0.5
5 1 0.522669 0.445374 0.5
6 1 0.526455 0.467054 0.5
7 1 0.535175 0.464251 0.5
ITEM: TIMESTEP
330
ITEM: NUMBER OF ATOMS
7
ITEM: BOX BOUNDS ff ff pp
-6.0000000000000000e+00 6.0000000000000000e+00
-6.0000000000000000e+00 6.0000000000000000e+00
-6.0000000000000000e+00 6.0000000000000000e+00
ITEM: ATOMS id type xs ys zs
1 2 0.471059 0.50919 0.5
2 1 0.550758 0.533532 0.5
3 1 0.532403 0.452251 0.5
4 1 0.575349 0.380803 0.5
5 1 0.522671 0.445375 0.5
6 1 0.526458 0.467054 0.5
7 1 0.535176 0.464252 0.5
ITEM: TIMESTEP
340
ITEM: NUMBER OF ATOMS
7
ITEM: BOX BOUNDS ff ff pp
-6.0000000000000000e+00 6.0000000000000000e+00
-6.0000000000000000e+00 6.0000000000000000e+00
-6.0000000000000000e+00 6.0000000000000000e+00
ITEM: ATOMS id type xs ys zs
1 2 0.471058 0.509189 0.5
2 1 0.550756 0.533533 0.5
3 1 0.532405 0.452252 0.5
4 1 0.575347 0.380801 0.5
5 1 0.522672 0.445375 0.5
6 1 0.526459 0.467054 0.5
7 1 0.535176 0.464253 0.5
ITEM: TIMESTEP
350
ITEM: NUMBER OF ATOMS
7
ITEM: BOX BOUNDS ff ff pp
-6.0000000000000000e+00 6.0000000000000000e+00
-6.0000000000000000e+00 6.0000000000000000e+00
-6.0000000000000000e+00 6.0000000000000000e+00
ITEM: ATOMS id type xs ys zs
1 2 0.471057 0.509188 0.5
2 1 0.550754 0.533535 0.5
3 1 0.532407 0.452252 0.5
4 1 0.575344 0.380799 0.5
5 1 0.522672 0.445376 0.5
6 1 0.526461 0.467054 0.5
7 1 0.535176 0.464254 0.5
ITEM: TIMESTEP
360
ITEM: NUMBER OF ATOMS
7
ITEM: BOX BOUNDS ff ff pp
-6.0000000000000000e+00 6.0000000000000000e+00
-6.0000000000000000e+00 6.0000000000000000e+00
-6.0000000000000000e+00 6.0000000000000000e+00
ITEM: ATOMS id type xs ys zs
1 2 0.471056 0.509186 0.5
2 1 0.550751 0.533537 0.5
3 1 0.532411 0.452253 0.5
4 1 0.575341 0.380796 0.5
5 1 0.522674 0.445377 0.5
6 1 0.526463 0.467055 0.5
7 1 0.535177 0.464256 0.5
ITEM: TIMESTEP
370
ITEM: NUMBER OF ATOMS
7
ITEM: BOX BOUNDS ff ff pp
-6.0000000000000000e+00 6.0000000000000000e+00
-6.0000000000000000e+00 6.0000000000000000e+00
-6.0000000000000000e+00 6.0000000000000000e+00
ITEM: ATOMS id type xs ys zs
1 2 0.471054 0.509185 0.5
2 1 0.550749 0.533539 0.5
3 1 0.532413 0.452254 0.5
4 1 0.575338 0.380793 0.5
5 1 0.522675 0.445377 0.5
6 1 0.526465 0.467055 0.5
7 1 0.535177 0.464257 0.5
ITEM: TIMESTEP
380
ITEM: NUMBER OF ATOMS
7
ITEM: BOX BOUNDS ff ff pp
-6.0000000000000000e+00 6.0000000000000000e+00
-6.0000000000000000e+00 6.0000000000000000e+00
-6.0000000000000000e+00 6.0000000000000000e+00
ITEM: ATOMS id type xs ys zs
1 2 0.471053 0.509184 0.5
2 1 0.550747 0.53354 0.5
3 1 0.532415 0.452254 0.5
4 1 0.575336 0.380791 0.5
5 1 0.522676 0.445378 0.5
6 1 0.526467 0.467055 0.5
7 1 0.535178 0.464258 0.5
ITEM: TIMESTEP
390
ITEM: NUMBER OF ATOMS
7
ITEM: BOX BOUNDS ff ff pp
-6.0000000000000000e+00 6.0000000000000000e+00
-6.0000000000000000e+00 6.0000000000000000e+00
-6.0000000000000000e+00 6.0000000000000000e+00
ITEM: ATOMS id type xs ys zs
1 2 0.471052 0.509182 0.5
2 1 0.550745 0.533542 0.5
3 1 0.532418 0.452255 0.5
4 1 0.575332 0.380788 0.5
5 1 0.522677 0.445379 0.5
6 1 0.526469 0.467055 0.5
7 1 0.535178 0.464259 0.5
ITEM: TIMESTEP
400
ITEM: NUMBER OF ATOMS
7
ITEM: BOX BOUNDS ff ff pp
-6.0000000000000000e+00 6.0000000000000000e+00
-6.0000000000000000e+00 6.0000000000000000e+00
-6.0000000000000000e+00 6.0000000000000000e+00
ITEM: ATOMS id type xs ys zs
1 2 0.47105 0.509181 0.5
2 1 0.550743 0.533544 0.5
3 1 0.532421 0.452256 0.5
4 1 0.57533 0.380786 0.5
5 1 0.522678 0.445379 0.5
6 1 0.526471 0.467056 0.5
7 1 0.535178 0.46426 0.5
ITEM: TIMESTEP
410
ITEM: NUMBER OF ATOMS
7
ITEM: BOX BOUNDS ff ff pp
-6.0000000000000000e+00 6.0000000000000000e+00
-6.0000000000000000e+00 6.0000000000000000e+00
-6.0000000000000000e+00 6.0000000000000000e+00
ITEM: ATOMS id type xs ys zs
1 2 0.471049 0.50918 0.5
2 1 0.550741 0.533545 0.5
3 1 0.532423 0.452256 0.5
4 1 0.575328 0.380784 0.5
5 1 0.522679 0.44538 0.5
6 1 0.526472 0.467056 0.5
7 1 0.535179 0.464261 0.5
ITEM: TIMESTEP
420
ITEM: NUMBER OF ATOMS
7
ITEM: BOX BOUNDS ff ff pp
-6.0000000000000000e+00 6.0000000000000000e+00
-6.0000000000000000e+00 6.0000000000000000e+00
-6.0000000000000000e+00 6.0000000000000000e+00
ITEM: ATOMS id type xs ys zs
1 2 0.471048 0.509178 0.5
2 1 0.550738 0.533547 0.5
3 1 0.532426 0.452257 0.5
4 1 0.575324 0.380781 0.5
5 1 0.52268 0.445381 0.5
6 1 0.526475 0.467056 0.5
7 1 0.535179 0.464262 0.5
ITEM: TIMESTEP
430
ITEM: NUMBER OF ATOMS
7
ITEM: BOX BOUNDS ff ff pp
-6.0000000000000000e+00 6.0000000000000000e+00
-6.0000000000000000e+00 6.0000000000000000e+00
-6.0000000000000000e+00 6.0000000000000000e+00
ITEM: ATOMS id type xs ys zs
1 2 0.471046 0.509177 0.5
2 1 0.550736 0.533549 0.5
3 1 0.532429 0.452258 0.5
4 1 0.575321 0.380778 0.5
5 1 0.522682 0.445382 0.5
6 1 0.526477 0.467056 0.5
7 1 0.53518 0.464264 0.5
ITEM: TIMESTEP
440
ITEM: NUMBER OF ATOMS
7
ITEM: BOX BOUNDS ff ff pp
-6.0000000000000000e+00 6.0000000000000000e+00
-6.0000000000000000e+00 6.0000000000000000e+00
-6.0000000000000000e+00 6.0000000000000000e+00
ITEM: ATOMS id type xs ys zs
1 2 0.471045 0.509176 0.5
2 1 0.550734 0.53355 0.5
3 1 0.532431 0.452258 0.5
4 1 0.575319 0.380776 0.5
5 1 0.522682 0.445382 0.5
6 1 0.526478 0.467057 0.5
7 1 0.53518 0.464265 0.5
ITEM: TIMESTEP
450
ITEM: NUMBER OF ATOMS
7
ITEM: BOX BOUNDS ff ff pp
-6.0000000000000000e+00 6.0000000000000000e+00
-6.0000000000000000e+00 6.0000000000000000e+00
-6.0000000000000000e+00 6.0000000000000000e+00
ITEM: ATOMS id type xs ys zs
1 2 0.471044 0.509175 0.5
2 1 0.550732 0.533552 0.5
3 1 0.532434 0.452259 0.5
4 1 0.575316 0.380773 0.5
5 1 0.522684 0.445383 0.5
6 1 0.52648 0.467057 0.5
7 1 0.53518 0.464266 0.5
ITEM: TIMESTEP
460
ITEM: NUMBER OF ATOMS
7
ITEM: BOX BOUNDS ff ff pp
-6.0000000000000000e+00 6.0000000000000000e+00
-6.0000000000000000e+00 6.0000000000000000e+00
-6.0000000000000000e+00 6.0000000000000000e+00
ITEM: ATOMS id type xs ys zs
1 2 0.471043 0.509173 0.5
2 1 0.550729 0.533554 0.5
3 1 0.532436 0.45226 0.5
4 1 0.575313 0.380771 0.5
5 1 0.522685 0.445383 0.5
6 1 0.526482 0.467057 0.5
7 1 0.535181 0.464267 0.5
ITEM: TIMESTEP
470
ITEM: NUMBER OF ATOMS
7
ITEM: BOX BOUNDS ff ff pp
-6.0000000000000000e+00 6.0000000000000000e+00
-6.0000000000000000e+00 6.0000000000000000e+00
-6.0000000000000000e+00 6.0000000000000000e+00
ITEM: ATOMS id type xs ys zs
1 2 0.471042 0.509172 0.5
2 1 0.550728 0.533555 0.5
3 1 0.532438 0.45226 0.5
4 1 0.575311 0.380769 0.5
5 1 0.522685 0.445384 0.5
6 1 0.526484 0.467057 0.5
7 1 0.535181 0.464268 0.5
ITEM: TIMESTEP
480
ITEM: NUMBER OF ATOMS
7
ITEM: BOX BOUNDS ff ff pp
-6.0000000000000000e+00 6.0000000000000000e+00
-6.0000000000000000e+00 6.0000000000000000e+00
-6.0000000000000000e+00 6.0000000000000000e+00
ITEM: ATOMS id type xs ys zs
1 2 0.47104 0.509171 0.5
2 1 0.550725 0.533557 0.5
3 1 0.532441 0.452261 0.5
4 1 0.575308 0.380766 0.5
5 1 0.522687 0.445385 0.5
6 1 0.526486 0.467058 0.5
7 1 0.535181 0.464269 0.5
ITEM: TIMESTEP
490
ITEM: NUMBER OF ATOMS
7
ITEM: BOX BOUNDS ff ff pp
-6.0000000000000000e+00 6.0000000000000000e+00
-6.0000000000000000e+00 6.0000000000000000e+00
-6.0000000000000000e+00 6.0000000000000000e+00
ITEM: ATOMS id type xs ys zs
1 2 0.471039 0.50917 0.5
2 1 0.550724 0.533558 0.5
3 1 0.532443 0.452261 0.5
4 1 0.575306 0.380764 0.5
5 1 0.522687 0.445385 0.5
6 1 0.526487 0.467058 0.5
7 1 0.535182 0.46427 0.5
ITEM: TIMESTEP
500
ITEM: NUMBER OF ATOMS
7
ITEM: BOX BOUNDS ff ff pp
-6.0000000000000000e+00 6.0000000000000000e+00
-6.0000000000000000e+00 6.0000000000000000e+00
-6.0000000000000000e+00 6.0000000000000000e+00
ITEM: ATOMS id type xs ys zs
1 2 0.471038 0.509169 0.5
2 1 0.550722 0.53356 0.5
3 1 0.532445 0.452262 0.5
4 1 0.575303 0.380762 0.5
5 1 0.522688 0.445386 0.5
6 1 0.526489 0.467058 0.5
7 1 0.535182 0.464271 0.5
ITEM: TIMESTEP
510
ITEM: NUMBER OF ATOMS
7
ITEM: BOX BOUNDS ff ff pp
-6.0000000000000000e+00 6.0000000000000000e+00
-6.0000000000000000e+00 6.0000000000000000e+00
-6.0000000000000000e+00 6.0000000000000000e+00
ITEM: ATOMS id type xs ys zs
1 2 0.471036 0.509167 0.5
2 1 0.550719 0.533562 0.5
3 1 0.532449 0.452263 0.5
4 1 0.5753 0.380759 0.5
5 1 0.52269 0.445387 0.5
6 1 0.526491 0.467058 0.5
7 1 0.535183 0.464272 0.5
ITEM: TIMESTEP
520
ITEM: NUMBER OF ATOMS
7
ITEM: BOX BOUNDS ff ff pp
-6.0000000000000000e+00 6.0000000000000000e+00
-6.0000000000000000e+00 6.0000000000000000e+00
-6.0000000000000000e+00 6.0000000000000000e+00
ITEM: ATOMS id type xs ys zs
1 2 0.471036 0.509166 0.5
2 1 0.550717 0.533563 0.5
3 1 0.53245 0.452263 0.5
4 1 0.575298 0.380757 0.5
5 1 0.522691 0.445387 0.5
6 1 0.526493 0.467059 0.5
7 1 0.535183 0.464273 0.5
ITEM: TIMESTEP
530
ITEM: NUMBER OF ATOMS
7
ITEM: BOX BOUNDS ff ff pp
-6.0000000000000000e+00 6.0000000000000000e+00
-6.0000000000000000e+00 6.0000000000000000e+00
-6.0000000000000000e+00 6.0000000000000000e+00
ITEM: ATOMS id type xs ys zs
1 2 0.471035 0.509165 0.5
2 1 0.550715 0.533565 0.5
3 1 0.532452 0.452263 0.5
4 1 0.575295 0.380755 0.5
5 1 0.522691 0.445388 0.5
6 1 0.526494 0.467059 0.5
7 1 0.535183 0.464274 0.5
ITEM: TIMESTEP
540
ITEM: NUMBER OF ATOMS
7
ITEM: BOX BOUNDS ff ff pp
-6.0000000000000000e+00 6.0000000000000000e+00
-6.0000000000000000e+00 6.0000000000000000e+00
-6.0000000000000000e+00 6.0000000000000000e+00
ITEM: ATOMS id type xs ys zs
1 2 0.471033 0.509164 0.5
2 1 0.550713 0.533567 0.5
3 1 0.532455 0.452264 0.5
4 1 0.575292 0.380752 0.5
5 1 0.522693 0.445388 0.5
6 1 0.526496 0.467059 0.5
7 1 0.535184 0.464275 0.5
ITEM: TIMESTEP
550
ITEM: NUMBER OF ATOMS
7
ITEM: BOX BOUNDS ff ff pp
-6.0000000000000000e+00 6.0000000000000000e+00
-6.0000000000000000e+00 6.0000000000000000e+00
-6.0000000000000000e+00 6.0000000000000000e+00
ITEM: ATOMS id type xs ys zs
1 2 0.471032 0.509163 0.5
2 1 0.550711 0.533569 0.5
3 1 0.532458 0.452265 0.5
4 1 0.575289 0.38075 0.5
5 1 0.522694 0.445389 0.5
6 1 0.526498 0.467059 0.5
7 1 0.535184 0.464277 0.5
ITEM: TIMESTEP
560
ITEM: NUMBER OF ATOMS
7
ITEM: BOX BOUNDS ff ff pp
-6.0000000000000000e+00 6.0000000000000000e+00
-6.0000000000000000e+00 6.0000000000000000e+00
-6.0000000000000000e+00 6.0000000000000000e+00
ITEM: ATOMS id type xs ys zs
1 2 0.471031 0.509162 0.5
2 1 0.550709 0.53357 0.5
3 1 0.53246 0.452265 0.5
4 1 0.575287 0.380748 0.5
5 1 0.522695 0.44539 0.5
6 1 0.5265 0.46706 0.5
7 1 0.535184 0.464277 0.5
ITEM: TIMESTEP
570
ITEM: NUMBER OF ATOMS
7
ITEM: BOX BOUNDS ff ff pp
-6.0000000000000000e+00 6.0000000000000000e+00
-6.0000000000000000e+00 6.0000000000000000e+00
-6.0000000000000000e+00 6.0000000000000000e+00
ITEM: ATOMS id type xs ys zs
1 2 0.471029 0.50916 0.5
2 1 0.550706 0.533572 0.5
3 1 0.532463 0.452266 0.5
4 1 0.575284 0.380745 0.5
5 1 0.522696 0.44539 0.5
6 1 0.526502 0.46706 0.5
7 1 0.535185 0.464279 0.5
ITEM: TIMESTEP
580
ITEM: NUMBER OF ATOMS
7
ITEM: BOX BOUNDS ff ff pp
-6.0000000000000000e+00 6.0000000000000000e+00
-6.0000000000000000e+00 6.0000000000000000e+00
-6.0000000000000000e+00 6.0000000000000000e+00
ITEM: ATOMS id type xs ys zs
1 2 0.471028 0.509159 0.5
2 1 0.550705 0.533573 0.5
3 1 0.532465 0.452267 0.5
4 1 0.575282 0.380743 0.5
5 1 0.522697 0.445391 0.5
6 1 0.526504 0.46706 0.5
7 1 0.535185 0.46428 0.5
ITEM: TIMESTEP
590
ITEM: NUMBER OF ATOMS
7
ITEM: BOX BOUNDS ff ff pp
-6.0000000000000000e+00 6.0000000000000000e+00
-6.0000000000000000e+00 6.0000000000000000e+00
-6.0000000000000000e+00 6.0000000000000000e+00
ITEM: ATOMS id type xs ys zs
1 2 0.471027 0.509158 0.5
2 1 0.550703 0.533575 0.5
3 1 0.532467 0.452267 0.5
4 1 0.575279 0.380741 0.5
5 1 0.522698 0.445391 0.5
6 1 0.526505 0.46706 0.5
7 1 0.535185 0.46428 0.5
ITEM: TIMESTEP
600
ITEM: NUMBER OF ATOMS
7
ITEM: BOX BOUNDS ff ff pp
-6.0000000000000000e+00 6.0000000000000000e+00
-6.0000000000000000e+00 6.0000000000000000e+00
-6.0000000000000000e+00 6.0000000000000000e+00
ITEM: ATOMS id type xs ys zs
1 2 0.471026 0.509157 0.5
2 1 0.5507 0.533577 0.5
3 1 0.53247 0.452268 0.5
4 1 0.575276 0.380738 0.5
5 1 0.522699 0.445392 0.5
6 1 0.526507 0.467061 0.5
7 1 0.535186 0.464282 0.5
ITEM: TIMESTEP
610
ITEM: NUMBER OF ATOMS
7
ITEM: BOX BOUNDS ff ff pp
-6.0000000000000000e+00 6.0000000000000000e+00
-6.0000000000000000e+00 6.0000000000000000e+00
-6.0000000000000000e+00 6.0000000000000000e+00
ITEM: ATOMS id type xs ys zs
1 2 0.471025 0.509156 0.5
2 1 0.550698 0.533578 0.5
3 1 0.532472 0.452268 0.5
4 1 0.575274 0.380736 0.5
5 1 0.5227 0.445393 0.5
6 1 0.526509 0.467061 0.5
7 1 0.535186 0.464283 0.5
ITEM: TIMESTEP
620
ITEM: NUMBER OF ATOMS
7
ITEM: BOX BOUNDS ff ff pp
-6.0000000000000000e+00 6.0000000000000000e+00
-6.0000000000000000e+00 6.0000000000000000e+00
-6.0000000000000000e+00 6.0000000000000000e+00
ITEM: ATOMS id type xs ys zs
1 2 0.471024 0.509155 0.5
2 1 0.550697 0.533579 0.5
3 1 0.532474 0.452269 0.5
4 1 0.575272 0.380734 0.5
5 1 0.522701 0.445393 0.5
6 1 0.52651 0.467061 0.5
7 1 0.535186 0.464284 0.5
ITEM: TIMESTEP
630
ITEM: NUMBER OF ATOMS
7
ITEM: BOX BOUNDS ff ff pp
-6.0000000000000000e+00 6.0000000000000000e+00
-6.0000000000000000e+00 6.0000000000000000e+00
-6.0000000000000000e+00 6.0000000000000000e+00
ITEM: ATOMS id type xs ys zs
1 2 0.471022 0.509153 0.5
2 1 0.550694 0.533581 0.5
3 1 0.532477 0.45227 0.5
4 1 0.575269 0.380731 0.5
5 1 0.522702 0.445394 0.5
6 1 0.526512 0.467061 0.5
7 1 0.535187 0.464285 0.5
ITEM: TIMESTEP
640
ITEM: NUMBER OF ATOMS
7
ITEM: BOX BOUNDS ff ff pp
-6.0000000000000000e+00 6.0000000000000000e+00
-6.0000000000000000e+00 6.0000000000000000e+00
-6.0000000000000000e+00 6.0000000000000000e+00
ITEM: ATOMS id type xs ys zs
1 2 0.471021 0.509152 0.5
2 1 0.550692 0.533583 0.5
3 1 0.532479 0.45227 0.5
4 1 0.575266 0.380729 0.5
5 1 0.522703 0.445394 0.5
6 1 0.526514 0.467061 0.5
7 1 0.535187 0.464286 0.5
ITEM: TIMESTEP
650
ITEM: NUMBER OF ATOMS
7
ITEM: BOX BOUNDS ff ff pp
-6.0000000000000000e+00 6.0000000000000000e+00
-6.0000000000000000e+00 6.0000000000000000e+00
-6.0000000000000000e+00 6.0000000000000000e+00
ITEM: ATOMS id type xs ys zs
1 2 0.47102 0.509151 0.5
2 1 0.550691 0.533584 0.5
3 1 0.532481 0.452271 0.5
4 1 0.575264 0.380727 0.5
5 1 0.522704 0.445395 0.5
6 1 0.526515 0.467062 0.5
7 1 0.535187 0.464287 0.5
ITEM: TIMESTEP
660
ITEM: NUMBER OF ATOMS
7
ITEM: BOX BOUNDS ff ff pp
-6.0000000000000000e+00 6.0000000000000000e+00
-6.0000000000000000e+00 6.0000000000000000e+00
-6.0000000000000000e+00 6.0000000000000000e+00
ITEM: ATOMS id type xs ys zs
1 2 0.471019 0.50915 0.5
2 1 0.550688 0.533586 0.5
3 1 0.532484 0.452271 0.5
4 1 0.575261 0.380725 0.5
5 1 0.522705 0.445396 0.5
6 1 0.526517 0.467062 0.5
7 1 0.535188 0.464288 0.5
ITEM: TIMESTEP
670
ITEM: NUMBER OF ATOMS
7
ITEM: BOX BOUNDS ff ff pp
-6.0000000000000000e+00 6.0000000000000000e+00
-6.0000000000000000e+00 6.0000000000000000e+00
-6.0000000000000000e+00 6.0000000000000000e+00
ITEM: ATOMS id type xs ys zs
1 2 0.471017 0.509148 0.5
2 1 0.550686 0.533588 0.5
3 1 0.532487 0.452272 0.5
4 1 0.575258 0.380722 0.5
5 1 0.522706 0.445397 0.5
6 1 0.52652 0.467062 0.5
7 1 0.535188 0.464289 0.5
ITEM: TIMESTEP
680
ITEM: NUMBER OF ATOMS
7
ITEM: BOX BOUNDS ff ff pp
-6.0000000000000000e+00 6.0000000000000000e+00
-6.0000000000000000e+00 6.0000000000000000e+00
-6.0000000000000000e+00 6.0000000000000000e+00
ITEM: ATOMS id type xs ys zs
1 2 0.471016 0.509148 0.5
2 1 0.550685 0.533589 0.5
3 1 0.532488 0.452272 0.5
4 1 0.575256 0.38072 0.5
5 1 0.522707 0.445397 0.5
6 1 0.526521 0.467062 0.5
7 1 0.535188 0.46429 0.5
ITEM: TIMESTEP
690
ITEM: NUMBER OF ATOMS
7
ITEM: BOX BOUNDS ff ff pp
-6.0000000000000000e+00 6.0000000000000000e+00
-6.0000000000000000e+00 6.0000000000000000e+00
-6.0000000000000000e+00 6.0000000000000000e+00
ITEM: ATOMS id type xs ys zs
1 2 0.471015 0.509147 0.5
2 1 0.550683 0.53359 0.5
3 1 0.532491 0.452273 0.5
4 1 0.575254 0.380718 0.5
5 1 0.522708 0.445397 0.5
6 1 0.526522 0.467063 0.5
7 1 0.535189 0.464291 0.5
ITEM: TIMESTEP
700
ITEM: NUMBER OF ATOMS
7
ITEM: BOX BOUNDS ff ff pp
-6.0000000000000000e+00 6.0000000000000000e+00
-6.0000000000000000e+00 6.0000000000000000e+00
-6.0000000000000000e+00 6.0000000000000000e+00
ITEM: ATOMS id type xs ys zs
1 2 0.471014 0.509145 0.5
2 1 0.55068 0.533593 0.5
3 1 0.532494 0.452274 0.5
4 1 0.57525 0.380715 0.5
5 1 0.522709 0.445398 0.5
6 1 0.526525 0.467063 0.5
7 1 0.535189 0.464292 0.5
ITEM: TIMESTEP
710
ITEM: NUMBER OF ATOMS
7
ITEM: BOX BOUNDS ff ff pp
-6.0000000000000000e+00 6.0000000000000000e+00
-6.0000000000000000e+00 6.0000000000000000e+00
-6.0000000000000000e+00 6.0000000000000000e+00