ITEM: TIMESTEP
0
ITEM: NUMBER OF ATOMS
7
ITEM: BOX BOUNDS ff ff pp
-6.0000000000000000e+00 6.0000000000000000e+00
-6.0000000000000000e+00 6.0000000000000000e+00
-6.0000000000000000e+00 6.0000000000000000e+00
ITEM: ATOMS id type xs ys zs
1 2 0.485561 0.503769 0.5
2 1 0.55983 0.517644 0.5
3 1 0.538236 0.445207 0.5
4 1 0.568032 0.373019 0.5
5 1 0.526277 0.435797 0.5
6 1 0.533822 0.458954 0.5
7 1 0.538842 0.453329 0.5
ITEM: TIMESTEP
10
ITEM: NUMBER OF ATOMS
7
ITEM: BOX BOUNDS ff ff pp
-6.0000000000000000e+00 6.0000000000000000e+00
-6.0000000000000000e+00 6.0000000000000000e+00
-6.0000000000000000e+00 6.0000000000000000e+00
ITEM: ATOMS id type xs ys zs
1 2 0.48087 0.505897 0.5
2 1 0.563267 0.522896 0.5
3 1 0.536112 0.443429 0.5
4 1 0.571338 0.367419 0.5
5 1 0.525232 0.437108 0.5
6 1 0.531855 0.45897 0.5
7 1 0.540488 0.454534 0.5
ITEM: TIMESTEP
20
ITEM: NUMBER OF ATOMS
7
ITEM: BOX BOUNDS ff ff pp
-6.0000000000000000e+00 6.0000000000000000e+00
-6.0000000000000000e+00 6.0000000000000000e+00
-6.0000000000000000e+00 6.0000000000000000e+00
ITEM: ATOMS id type xs ys zs
1 2 0.480796 0.506303 0.5
2 1 0.562606 0.522496 0.5
3 1 0.536114 0.443459 0.5
4 1 0.571388 0.367856 0.5
5 1 0.525703 0.437577 0.5
6 1 0.531782 0.458744 0.5
7 1 0.540068 0.455059 0.5
ITEM: TIMESTEP
30
ITEM: NUMBER OF ATOMS
7
ITEM: BOX BOUNDS ff ff pp
-6.0000000000000000e+00 6.0000000000000000e+00
-6.0000000000000000e+00 6.0000000000000000e+00
-6.0000000000000000e+00 6.0000000000000000e+00
ITEM: ATOMS id type xs ys zs
1 2 0.480812 0.5063 0.5
2 1 0.562559 0.522485 0.5
3 1 0.536132 0.443442 0.5
4 1 0.571383 0.367897 0.5
5 1 0.525701 0.437592 0.5
6 1 0.531756 0.458775 0.5
7 1 0.540055 0.45511 0.5
ITEM: TIMESTEP
40
ITEM: NUMBER OF ATOMS
7
ITEM: BOX BOUNDS ff ff pp
-6.0000000000000000e+00 6.0000000000000000e+00
-6.0000000000000000e+00 6.0000000000000000e+00
-6.0000000000000000e+00 6.0000000000000000e+00
ITEM: ATOMS id type xs ys zs
1 2 0.480766 0.506317 0.5
2 1 0.562508 0.522527 0.5
3 1 0.536132 0.44348 0.5
4 1 0.571398 0.367948 0.5
5 1 0.525697 0.437634 0.5
6 1 0.531709 0.458803 0.5
7 1 0.540037 0.45516 0.5
ITEM: TIMESTEP
50
ITEM: NUMBER OF ATOMS
7
ITEM: BOX BOUNDS ff ff pp
-6.0000000000000000e+00 6.0000000000000000e+00
-6.0000000000000000e+00 6.0000000000000000e+00
-6.0000000000000000e+00 6.0000000000000000e+00
ITEM: ATOMS id type xs ys zs
1 2 0.480721 0.50633 0.5
2 1 0.562455 0.522577 0.5
3 1 0.536118 0.44352 0.5
4 1 0.571412 0.368001 0.5
5 1 0.525688 0.437671 0.5
6 1 0.531681 0.458838 0.5
7 1 0.540019 0.455202 0.5
ITEM: TIMESTEP
60
ITEM: NUMBER OF ATOMS
7
ITEM: BOX BOUNDS ff ff pp
-6.0000000000000000e+00 6.0000000000000000e+00
-6.0000000000000000e+00 6.0000000000000000e+00
-6.0000000000000000e+00 6.0000000000000000e+00
ITEM: ATOMS id type xs ys zs
1 2 0.480706 0.506334 0.5
2 1 0.562437 0.522594 0.5
3 1 0.536114 0.443533 0.5
4 1 0.571417 0.368018 0.5
5 1 0.525684 0.437682 0.5
6 1 0.531673 0.458851 0.5
7 1 0.540012 0.455216 0.5
ITEM: TIMESTEP
70
ITEM: NUMBER OF ATOMS
7
ITEM: BOX BOUNDS ff ff pp
-6.0000000000000000e+00 6.0000000000000000e+00
-6.0000000000000000e+00 6.0000000000000000e+00
-6.0000000000000000e+00 6.0000000000000000e+00
ITEM: ATOMS id type xs ys zs
1 2 0.480675 0.506342 0.5
2 1 0.562401 0.522628 0.5
3 1 0.536105 0.443559 0.5
4 1 0.571426 0.368053 0.5
5 1 0.525676 0.437705 0.5
6 1 0.531658 0.458875 0.5
7 1 0.539999 0.455244 0.5
ITEM: TIMESTEP
80
ITEM: NUMBER OF ATOMS
7
ITEM: BOX BOUNDS ff ff pp
-6.0000000000000000e+00 6.0000000000000000e+00
-6.0000000000000000e+00 6.0000000000000000e+00
-6.0000000000000000e+00 6.0000000000000000e+00
ITEM: ATOMS id type xs ys zs
1 2 0.480636 0.506352 0.5
2 1 0.562356 0.522673 0.5
3 1 0.536094 0.443592 0.5
4 1 0.571438 0.368096 0.5
5 1 0.525667 0.437735 0.5
6 1 0.531641 0.458906 0.5
7 1 0.539982 0.455279 0.5
ITEM: TIMESTEP
90
ITEM: NUMBER OF ATOMS
7
ITEM: BOX BOUNDS ff ff pp
-6.0000000000000000e+00 6.0000000000000000e+00
-6.0000000000000000e+00 6.0000000000000000e+00
-6.0000000000000000e+00 6.0000000000000000e+00
ITEM: ATOMS id type xs ys zs
1 2 0.480629 0.506354 0.5
2 1 0.562347 0.522681 0.5
3 1 0.536092 0.443598 0.5
4 1 0.57144 0.368104 0.5
5 1 0.525665 0.43774 0.5
6 1 0.531637 0.458911 0.5
7 1 0.539979 0.455286 0.5
ITEM: TIMESTEP
100
ITEM: NUMBER OF ATOMS
7
ITEM: BOX BOUNDS ff ff pp
-6.0000000000000000e+00 6.0000000000000000e+00
-6.0000000000000000e+00 6.0000000000000000e+00
-6.0000000000000000e+00 6.0000000000000000e+00
ITEM: ATOMS id type xs ys zs
1 2 0.480613 0.506358 0.5
2 1 0.562328 0.5227 0.5
3 1 0.536088 0.443612 0.5
4 1 0.571444 0.368122 0.5
5 1 0.525661 0.437752 0.5
6 1 0.531631 0.458924 0.5
7 1 0.539971 0.455301 0.5
ITEM: TIMESTEP
110
ITEM: NUMBER OF ATOMS
7
ITEM: BOX BOUNDS ff ff pp
-6.0000000000000000e+00 6.0000000000000000e+00
-6.0000000000000000e+00 6.0000000000000000e+00
-6.0000000000000000e+00 6.0000000000000000e+00
ITEM: ATOMS id type xs ys zs
1 2 0.480588 0.506363 0.5
2 1 0.562298 0.522729 0.5
3 1 0.536083 0.443632 0.5
4 1 0.571449 0.368147 0.5
5 1 0.525655 0.437771 0.5
6 1 0.531621 0.458943 0.5
7 1 0.539961 0.455323 0.5
ITEM: TIMESTEP
120
ITEM: NUMBER OF ATOMS
7
ITEM: BOX BOUNDS ff ff pp
-6.0000000000000000e+00 6.0000000000000000e+00
-6.0000000000000000e+00 6.0000000000000000e+00
-6.0000000000000000e+00 6.0000000000000000e+00
ITEM: ATOMS id type xs ys zs
1 2 0.480579 0.506365 0.5
2 1 0.562288 0.522739 0.5
3 1 0.536082 0.443639 0.5
4 1 0.57145 0.368155 0.5
5 1 0.525654 0.437777 0.5
6 1 0.531619 0.45895 0.5
7 1 0.539958 0.455331 0.5
ITEM: TIMESTEP
130
ITEM: NUMBER OF ATOMS
7
ITEM: BOX BOUNDS ff ff pp
-6.0000000000000000e+00 6.0000000000000000e+00
-6.0000000000000000e+00 6.0000000000000000e+00
-6.0000000000000000e+00 6.0000000000000000e+00
ITEM: ATOMS id type xs ys zs
1 2 0.480572 0.506366 0.5
2 1 0.562279 0.522748 0.5
3 1 0.536082 0.443645 0.5
4 1 0.571451 0.368162 0.5
5 1 0.525653 0.437782 0.5
6 1 0.531617 0.458955 0.5
7 1 0.539955 0.455338 0.5
ITEM: TIMESTEP
140
ITEM: NUMBER OF ATOMS
7
ITEM: BOX BOUNDS ff ff pp
-6.0000000000000000e+00 6.0000000000000000e+00
-6.0000000000000000e+00 6.0000000000000000e+00
-6.0000000000000000e+00 6.0000000000000000e+00
ITEM: ATOMS id type xs ys zs
1 2 0.480561 0.506367 0.5
2 1 0.562266 0.52276 0.5
3 1 0.536082 0.443653 0.5
4 1 0.57145 0.368169 0.5
5 1 0.525651 0.43779 0.5
6 1 0.531615 0.458962 0.5
7 1 0.539951 0.455347 0.5
ITEM: TIMESTEP
150
ITEM: NUMBER OF ATOMS
7
ITEM: BOX BOUNDS ff ff pp
-6.0000000000000000e+00 6.0000000000000000e+00
-6.0000000000000000e+00 6.0000000000000000e+00
-6.0000000000000000e+00 6.0000000000000000e+00
ITEM: ATOMS id type xs ys zs
1 2 0.480558 0.506367 0.5
2 1 0.562261 0.522764 0.5
3 1 0.536083 0.443656 0.5
4 1 0.571449 0.368171 0.5
5 1 0.525651 0.437792 0.5
6 1 0.531615 0.458964 0.5
7 1 0.53995 0.45535 0.5
ITEM: TIMESTEP
160
ITEM: NUMBER OF ATOMS
7
ITEM: BOX BOUNDS ff ff pp
-6.0000000000000000e+00 6.0000000000000000e+00
-6.0000000000000000e+00 6.0000000000000000e+00
-6.0000000000000000e+00 6.0000000000000000e+00
ITEM: ATOMS id type xs ys zs
1 2 0.480554 0.506367 0.5
2 1 0.562257 0.522769 0.5
3 1 0.536084 0.443658 0.5
4 1 0.571448 0.368172 0.5
5 1 0.525651 0.437794 0.5
6 1 0.531615 0.458967 0.5
7 1 0.539949 0.455353 0.5
ITEM: TIMESTEP
170
ITEM: NUMBER OF ATOMS
7
ITEM: BOX BOUNDS ff ff pp
-6.0000000000000000e+00 6.0000000000000000e+00
-6.0000000000000000e+00 6.0000000000000000e+00
-6.0000000000000000e+00 6.0000000000000000e+00
ITEM: ATOMS id type xs ys zs
1 2 0.480551 0.506367 0.5
2 1 0.562254 0.522772 0.5
3 1 0.536085 0.44366 0.5
4 1 0.571446 0.368173 0.5
5 1 0.525652 0.437796 0.5
6 1 0.531615 0.458968 0.5
7 1 0.539949 0.455355 0.5
ITEM: TIMESTEP
180
ITEM: NUMBER OF ATOMS
7
ITEM: BOX BOUNDS ff ff pp
-6.0000000000000000e+00 6.0000000000000000e+00
-6.0000000000000000e+00 6.0000000000000000e+00
-6.0000000000000000e+00 6.0000000000000000e+00
ITEM: ATOMS id type xs ys zs
1 2 0.480548 0.506366 0.5
2 1 0.562249 0.522776 0.5
3 1 0.536088 0.443662 0.5
4 1 0.571444 0.368173 0.5
5 1 0.525652 0.437798 0.5
6 1 0.531616 0.45897 0.5
7 1 0.539948 0.455358 0.5
ITEM: TIMESTEP
190
ITEM: NUMBER OF ATOMS
7
ITEM: BOX BOUNDS ff ff pp
-6.0000000000000000e+00 6.0000000000000000e+00
-6.0000000000000000e+00 6.0000000000000000e+00
-6.0000000000000000e+00 6.0000000000000000e+00
ITEM: ATOMS id type xs ys zs
1 2 0.480547 0.506366 0.5
2 1 0.562248 0.522778 0.5
3 1 0.536088 0.443662 0.5
4 1 0.571443 0.368173 0.5
5 1 0.525653 0.437799 0.5
6 1 0.531617 0.45897 0.5
7 1 0.539948 0.455359 0.5
ITEM: TIMESTEP
200
ITEM: NUMBER OF ATOMS
7
ITEM: BOX BOUNDS ff ff pp
-6.0000000000000000e+00 6.0000000000000000e+00
-6.0000000000000000e+00 6.0000000000000000e+00
-6.0000000000000000e+00 6.0000000000000000e+00
ITEM: ATOMS id type xs ys zs
1 2 0.480544 0.506365 0.5
2 1 0.562245 0.522781 0.5
3 1 0.53609 0.443664 0.5
4 1 0.571441 0.368172 0.5
5 1 0.525653 0.4378 0.5
6 1 0.531618 0.458971 0.5
7 1 0.539948 0.455361 0.5
ITEM: TIMESTEP
210
ITEM: NUMBER OF ATOMS
7
ITEM: BOX BOUNDS ff ff pp
-6.0000000000000000e+00 6.0000000000000000e+00
-6.0000000000000000e+00 6.0000000000000000e+00
-6.0000000000000000e+00 6.0000000000000000e+00
ITEM: ATOMS id type xs ys zs
1 2 0.480541 0.506364 0.5
2 1 0.56224 0.522785 0.5
3 1 0.536094 0.443665 0.5
4 1 0.571436 0.36817 0.5
5 1 0.525655 0.437802 0.5
6 1 0.53162 0.458972 0.5
7 1 0.539948 0.455364 0.5
ITEM: TIMESTEP
220
ITEM: NUMBER OF ATOMS
7
ITEM: BOX BOUNDS ff ff pp
-6.0000000000000000e+00 6.0000000000000000e+00
-6.0000000000000000e+00 6.0000000000000000e+00
-6.0000000000000000e+00 6.0000000000000000e+00
ITEM: ATOMS id type xs ys zs
1 2 0.48054 0.506363 0.5
2 1 0.562239 0.522786 0.5
3 1 0.536095 0.443666 0.5
4 1 0.571435 0.368169 0.5
5 1 0.525655 0.437802 0.5
6 1 0.531621 0.458972 0.5
7 1 0.539949 0.455365 0.5
ITEM: TIMESTEP
230
ITEM: NUMBER OF ATOMS
7
ITEM: BOX BOUNDS ff ff pp
-6.0000000000000000e+00 6.0000000000000000e+00
-6.0000000000000000e+00 6.0000000000000000e+00
-6.0000000000000000e+00 6.0000000000000000e+00
ITEM: ATOMS id type xs ys zs
1 2 0.480539 0.506363 0.5
2 1 0.562237 0.522788 0.5
3 1 0.536097 0.443666 0.5
4 1 0.571433 0.368168 0.5
5 1 0.525656 0.437803 0.5
6 1 0.531622 0.458973 0.5
7 1 0.539949 0.455366 0.5
ITEM: TIMESTEP
240
ITEM: NUMBER OF ATOMS
7
ITEM: BOX BOUNDS ff ff pp
-6.0000000000000000e+00 6.0000000000000000e+00
-6.0000000000000000e+00 6.0000000000000000e+00
-6.0000000000000000e+00 6.0000000000000000e+00
ITEM: ATOMS id type xs ys zs
1 2 0.480537 0.506362 0.5
2 1 0.562234 0.522791 0.5
3 1 0.5361 0.443667 0.5
4 1 0.57143 0.368166 0.5
5 1 0.525657 0.437804 0.5
6 1 0.531624 0.458973 0.5
7 1 0.539949 0.455367 0.5
ITEM: TIMESTEP
250
ITEM: NUMBER OF ATOMS
7
ITEM: BOX BOUNDS ff ff pp
-6.0000000000000000e+00 6.0000000000000000e+00
-6.0000000000000000e+00 6.0000000000000000e+00
-6.0000000000000000e+00 6.0000000000000000e+00
ITEM: ATOMS id type xs ys zs
1 2 0.480535 0.50636 0.5
2 1 0.562232 0.522793 0.5
3 1 0.536103 0.443668 0.5
4 1 0.571426 0.368164 0.5
5 1 0.525658 0.437804 0.5
6 1 0.531627 0.458973 0.5
7 1 0.53995 0.455369 0.5
ITEM: TIMESTEP
260
ITEM: NUMBER OF ATOMS
7
ITEM: BOX BOUNDS ff ff pp
-6.0000000000000000e+00 6.0000000000000000e+00
-6.0000000000000000e+00 6.0000000000000000e+00
-6.0000000000000000e+00 6.0000000000000000e+00
ITEM: ATOMS id type xs ys zs
1 2 0.480534 0.50636 0.5
2 1 0.56223 0.522794 0.5
3 1 0.536104 0.443668 0.5
4 1 0.571424 0.368163 0.5
5 1 0.525659 0.437805 0.5
6 1 0.531628 0.458973 0.5
7 1 0.53995 0.455369 0.5
ITEM: TIMESTEP
270
ITEM: NUMBER OF ATOMS
7
ITEM: BOX BOUNDS ff ff pp
-6.0000000000000000e+00 6.0000000000000000e+00
-6.0000000000000000e+00 6.0000000000000000e+00
-6.0000000000000000e+00 6.0000000000000000e+00
ITEM: ATOMS id type xs ys zs
1 2 0.480532 0.506359 0.5
2 1 0.562228 0.522796 0.5
3 1 0.536107 0.443668 0.5
4 1 0.571421 0.368161 0.5
5 1 0.52566 0.437805 0.5
6 1 0.531629 0.458974 0.5
7 1 0.53995 0.45537 0.5
ITEM: TIMESTEP
280
ITEM: NUMBER OF ATOMS
7
ITEM: BOX BOUNDS ff ff pp
-6.0000000000000000e+00 6.0000000000000000e+00
-6.0000000000000000e+00 6.0000000000000000e+00
-6.0000000000000000e+00 6.0000000000000000e+00
ITEM: ATOMS id type xs ys zs
1 2 0.480531 0.506358 0.5
2 1 0.562226 0.522798 0.5
3 1 0.536109 0.443669 0.5
4 1 0.571419 0.368159 0.5
5 1 0.525661 0.437806 0.5
6 1 0.531631 0.458974 0.5
7 1 0.539951 0.455371 0.5
ITEM: TIMESTEP
290
ITEM: NUMBER OF ATOMS
7
ITEM: BOX BOUNDS ff ff pp
-6.0000000000000000e+00 6.0000000000000000e+00
-6.0000000000000000e+00 6.0000000000000000e+00
-6.0000000000000000e+00 6.0000000000000000e+00
ITEM: ATOMS id type xs ys zs
1 2 0.48053 0.506357 0.5
2 1 0.562225 0.522799 0.5
3 1 0.536111 0.443669 0.5
4 1 0.571417 0.368157 0.5
5 1 0.525662 0.437806 0.5
6 1 0.531632 0.458974 0.5
7 1 0.539951 0.455372 0.5
ITEM: TIMESTEP
300
ITEM: NUMBER OF ATOMS
7
ITEM: BOX BOUNDS ff ff pp
-6.0000000000000000e+00 6.0000000000000000e+00
-6.0000000000000000e+00 6.0000000000000000e+00
-6.0000000000000000e+00 6.0000000000000000e+00
ITEM: ATOMS id type xs ys zs
1 2 0.480529 0.506356 0.5
2 1 0.562223 0.522801 0.5
3 1 0.536114 0.443669 0.5
4 1 0.571414 0.368155 0.5
5 1 0.525663 0.437807 0.5
6 1 0.531634 0.458974 0.5
7 1 0.539951 0.455373 0.5
ITEM: TIMESTEP
310
ITEM: NUMBER OF ATOMS
7
ITEM: BOX BOUNDS ff ff pp
-6.0000000000000000e+00 6.0000000000000000e+00
-6.0000000000000000e+00 6.0000000000000000e+00
-6.0000000000000000e+00 6.0000000000000000e+00
ITEM: ATOMS id type xs ys zs
1 2 0.480528 0.506355 0.5
2 1 0.562221 0.522803 0.5
3 1 0.536115 0.44367 0.5
4 1 0.571412 0.368154 0.5
5 1 0.525664 0.437807 0.5
6 1 0.531636 0.458974 0.5
7 1 0.539952 0.455374 0.5
ITEM: TIMESTEP
320
ITEM: NUMBER OF ATOMS
7
ITEM: BOX BOUNDS ff ff pp
-6.0000000000000000e+00 6.0000000000000000e+00
-6.0000000000000000e+00 6.0000000000000000e+00
-6.0000000000000000e+00 6.0000000000000000e+00
ITEM: ATOMS id type xs ys zs
1 2 0.480527 0.506354 0.5
2 1 0.56222 0.522804 0.5
3 1 0.536117 0.44367 0.5
4 1 0.571409 0.368152 0.5
5 1 0.525664 0.437808 0.5
6 1 0.531637 0.458974 0.5
7 1 0.539952 0.455375 0.5
ITEM: TIMESTEP
330
ITEM: NUMBER OF ATOMS
7
ITEM: BOX BOUNDS ff ff pp
-6.0000000000000000e+00 6.0000000000000000e+00
-6.0000000000000000e+00 6.0000000000000000e+00
-6.0000000000000000e+00 6.0000000000000000e+00
ITEM: ATOMS id type xs ys zs
1 2 0.480525 0.506353 0.5
2 1 0.562218 0.522806 0.5
3 1 0.53612 0.44367 0.5
4 1 0.571406 0.36815 0.5
5 1 0.525666 0.437808 0.5
6 1 0.531639 0.458974 0.5
7 1 0.539953 0.455376 0.5
ITEM: TIMESTEP
340
ITEM: NUMBER OF ATOMS
7
ITEM: BOX BOUNDS ff ff pp
-6.0000000000000000e+00 6.0000000000000000e+00
-6.0000000000000000e+00 6.0000000000000000e+00
-6.0000000000000000e+00 6.0000000000000000e+00
ITEM: ATOMS id type xs ys zs
1 2 0.480524 0.506352 0.5
2 1 0.562216 0.522808 0.5
3 1 0.536122 0.443671 0.5
4 1 0.571404 0.368148 0.5
5 1 0.525666 0.437809 0.5
6 1 0.53164 0.458974 0.5
7 1 0.539953 0.455377 0.5
ITEM: TIMESTEP
350
ITEM: NUMBER OF ATOMS
7
ITEM: BOX BOUNDS ff ff pp
-6.0000000000000000e+00 6.0000000000000000e+00
-6.0000000000000000e+00 6.0000000000000000e+00
-6.0000000000000000e+00 6.0000000000000000e+00
ITEM: ATOMS id type xs ys zs
1 2 0.480523 0.506351 0.5
2 1 0.562215 0.522809 0.5
3 1 0.536124 0.443671 0.5
4 1 0.571402 0.368147 0.5
5 1 0.525667 0.437809 0.5
6 1 0.531642 0.458974 0.5
7 1 0.539953 0.455378 0.5
ITEM: TIMESTEP
360
ITEM: NUMBER OF ATOMS
7
ITEM: BOX BOUNDS ff ff pp
-6.0000000000000000e+00 6.0000000000000000e+00
-6.0000000000000000e+00 6.0000000000000000e+00
-6.0000000000000000e+00 6.0000000000000000e+00
ITEM: ATOMS id type xs ys zs
1 2 0.480522 0.50635 0.5
2 1 0.562213 0.522811 0.5
3 1 0.536126 0.443671 0.5
4 1 0.571399 0.368145 0.5
5 1 0.525668 0.43781 0.5
6 1 0.531643 0.458974 0.5
7 1 0.539954 0.455379 0.5
ITEM: TIMESTEP
370
ITEM: NUMBER OF ATOMS
7
ITEM: BOX BOUNDS ff ff pp
-6.0000000000000000e+00 6.0000000000000000e+00
-6.0000000000000000e+00 6.0000000000000000e+00
-6.0000000000000000e+00 6.0000000000000000e+00
ITEM: ATOMS id type xs ys zs
1 2 0.48052 0.506349 0.5
2 1 0.562211 0.522812 0.5
3 1 0.536128 0.443672 0.5
4 1 0.571396 0.368143 0.5
5 1 0.525669 0.43781 0.5
6 1 0.531645 0.458974 0.5
7 1 0.539954 0.45538 0.5
ITEM: TIMESTEP
380
ITEM: NUMBER OF ATOMS
7
ITEM: BOX BOUNDS ff ff pp
-6.0000000000000000e+00 6.0000000000000000e+00
-6.0000000000000000e+00 6.0000000000000000e+00
-6.0000000000000000e+00 6.0000000000000000e+00
ITEM: ATOMS id type xs ys zs
1 2 0.48052 0.506349 0.5
2 1 0.56221 0.522814 0.5
3 1 0.53613 0.443672 0.5
4 1 0.571394 0.368141 0.5
5 1 0.52567 0.43781 0.5
6 1 0.531646 0.458974 0.5
7 1 0.539954 0.45538 0.5
ITEM: TIMESTEP
390
ITEM: NUMBER OF ATOMS
7
ITEM: BOX BOUNDS ff ff pp
-6.0000000000000000e+00 6.0000000000000000e+00
-6.0000000000000000e+00 6.0000000000000000e+00
-6.0000000000000000e+00 6.0000000000000000e+00
ITEM: ATOMS id type xs ys zs
1 2 0.480518 0.506348 0.5
2 1 0.562208 0.522815 0.5
3 1 0.536133 0.443672 0.5
4 1 0.571392 0.368139 0.5
5 1 0.525671 0.437811 0.5
6 1 0.531648 0.458974 0.5
7 1 0.539955 0.455381 0.5
ITEM: TIMESTEP
400
ITEM: NUMBER OF ATOMS
7
ITEM: BOX BOUNDS ff ff pp
-6.0000000000000000e+00 6.0000000000000000e+00
-6.0000000000000000e+00 6.0000000000000000e+00
-6.0000000000000000e+00 6.0000000000000000e+00
ITEM: ATOMS id type xs ys zs
1 2 0.480517 0.506347 0.5
2 1 0.562206 0.522817 0.5
3 1 0.536135 0.443672 0.5
4 1 0.571389 0.368138 0.5
5 1 0.525672 0.437811 0.5
6 1 0.53165 0.458974 0.5
7 1 0.539955 0.455382 0.5
ITEM: TIMESTEP
410
ITEM: NUMBER OF ATOMS
7
ITEM: BOX BOUNDS ff ff pp
-6.0000000000000000e+00 6.0000000000000000e+00
-6.0000000000000000e+00 6.0000000000000000e+00
-6.0000000000000000e+00 6.0000000000000000e+00
ITEM: ATOMS id type xs ys zs
1 2 0.480516 0.506346 0.5
2 1 0.562205 0.522818 0.5
3 1 0.536136 0.443673 0.5
4 1 0.571387 0.368136 0.5
5 1 0.525673 0.437812 0.5
6 1 0.531651 0.458974 0.5
7 1 0.539955 0.455383 0.5
ITEM: TIMESTEP
420
ITEM: NUMBER OF ATOMS
7
ITEM: BOX BOUNDS ff ff pp
-6.0000000000000000e+00 6.0000000000000000e+00
-6.0000000000000000e+00 6.0000000000000000e+00
-6.0000000000000000e+00 6.0000000000000000e+00
ITEM: ATOMS id type xs ys zs
1 2 0.480515 0.506345 0.5
2 1 0.562203 0.52282 0.5
3 1 0.536139 0.443673 0.5
4 1 0.571384 0.368134 0.5
5 1 0.525674 0.437812 0.5
6 1 0.531653 0.458974 0.5
7 1 0.539956 0.455384 0.5
ITEM: TIMESTEP
430
ITEM: NUMBER OF ATOMS
7
ITEM: BOX BOUNDS ff ff pp
-6.0000000000000000e+00 6.0000000000000000e+00
-6.0000000000000000e+00 6.0000000000000000e+00
-6.0000000000000000e+00 6.0000000000000000e+00
ITEM: ATOMS id type xs ys zs
1 2 0.480513 0.506344 0.5
2 1 0.562201 0.522822 0.5
3 1 0.536141 0.443673 0.5
4 1 0.571381 0.368132 0.5
5 1 0.525675 0.437813 0.5
6 1 0.531654 0.458975 0.5
7 1 0.539956 0.455385 0.5
ITEM: TIMESTEP
440
ITEM: NUMBER OF ATOMS
7
ITEM: BOX BOUNDS ff ff pp
-6.0000000000000000e+00 6.0000000000000000e+00
-6.0000000000000000e+00 6.0000000000000000e+00
-6.0000000000000000e+00 6.0000000000000000e+00
ITEM: ATOMS id type xs ys zs
1 2 0.480513 0.506343 0.5
2 1 0.5622 0.522823 0.5
3 1 0.536143 0.443674 0.5
4 1 0.57138 0.368131 0.5
5 1 0.525675 0.437813 0.5
6 1 0.531656 0.458975 0.5
7 1 0.539957 0.455385 0.5
ITEM: TIMESTEP
450
ITEM: NUMBER OF ATOMS
7
ITEM: BOX BOUNDS ff ff pp
-6.0000000000000000e+00 6.0000000000000000e+00
-6.0000000000000000e+00 6.0000000000000000e+00
-6.0000000000000000e+00 6.0000000000000000e+00
ITEM: ATOMS id type xs ys zs
1 2 0.480511 0.506342 0.5
2 1 0.562198 0.522825 0.5
3 1 0.536145 0.443674 0.5
4 1 0.571377 0.368129 0.5
5 1 0.525676 0.437814 0.5
6 1 0.531657 0.458975 0.5
7 1 0.539957 0.455386 0.5
ITEM: TIMESTEP
460
ITEM: NUMBER OF ATOMS
7
ITEM: BOX BOUNDS ff ff pp
-6.0000000000000000e+00 6.0000000000000000e+00
-6.0000000000000000e+00 6.0000000000000000e+00
-6.0000000000000000e+00 6.0000000000000000e+00
ITEM: ATOMS id type xs ys zs
1 2 0.48051 0.506341 0.5
2 1 0.562197 0.522826 0.5
3 1 0.536147 0.443674 0.5
4 1 0.571374 0.368127 0.5
5 1 0.525677 0.437814 0.5
6 1 0.531659 0.458975 0.5
7 1 0.539957 0.455387 0.5
ITEM: TIMESTEP
470
ITEM: NUMBER OF ATOMS
7
ITEM: BOX BOUNDS ff ff pp
-6.0000000000000000e+00 6.0000000000000000e+00
-6.0000000000000000e+00 6.0000000000000000e+00
-6.0000000000000000e+00 6.0000000000000000e+00
ITEM: ATOMS id type xs ys zs
1 2 0.480509 0.50634 0.5
2 1 0.562195 0.522827 0.5
3 1 0.536149 0.443674 0.5
4 1 0.571373 0.368126 0.5
5 1 0.525678 0.437814 0.5
6 1 0.53166 0.458975 0.5
7 1 0.539958 0.455388 0.5
ITEM: TIMESTEP
480
ITEM: NUMBER OF ATOMS
7
ITEM: BOX BOUNDS ff ff pp
-6.0000000000000000e+00 6.0000000000000000e+00
-6.0000000000000000e+00 6.0000000000000000e+00
-6.0000000000000000e+00 6.0000000000000000e+00
ITEM: ATOMS id type xs ys zs
1 2 0.480508 0.506339 0.5
2 1 0.562193 0.522829 0.5
3 1 0.536151 0.443675 0.5
4 1 0.57137 0.368124 0.5
5 1 0.525679 0.437815 0.5
6 1 0.531662 0.458975 0.5
7 1 0.539958 0.455389 0.5
ITEM: TIMESTEP
490
ITEM: NUMBER OF ATOMS
7
ITEM: BOX BOUNDS ff ff pp
-6.0000000000000000e+00 6.0000000000000000e+00
-6.0000000000000000e+00 6.0000000000000000e+00
-6.0000000000000000e+00 6.0000000000000000e+00
ITEM: ATOMS id type xs ys zs
1 2 0.480507 0.506339 0.5
2 1 0.562192 0.52283 0.5
3 1 0.536153 0.443675 0.5
4 1 0.571368 0.368122 0.5
5 1 0.52568 0.437815 0.5
6 1 0.531663 0.458975 0.5
7 1 0.539958 0.455389 0.5
ITEM: TIMESTEP
500
ITEM: NUMBER OF ATOMS
7
ITEM: BOX BOUNDS ff ff pp
-6.0000000000000000e+00 6.0000000000000000e+00
-6.0000000000000000e+00 6.0000000000000000e+00
-6.0000000000000000e+00 6.0000000000000000e+00
ITEM: ATOMS id type xs ys zs
1 2 0.480506 0.506338 0.5
2 1 0.562191 0.522832 0.5
3 1 0.536155 0.443675 0.5
4 1 0.571366 0.368121 0.5
5 1 0.525681 0.437816 0.5
6 1 0.531664 0.458975 0.5
7 1 0.539959 0.45539 0.5
ITEM: TIMESTEP
510
ITEM: NUMBER OF ATOMS
7
ITEM: BOX BOUNDS ff ff pp
-6.0000000000000000e+00 6.0000000000000000e+00
-6.0000000000000000e+00 6.0000000000000000e+00
-6.0000000000000000e+00 6.0000000000000000e+00
ITEM: ATOMS id type xs ys zs
1 2 0.480505 0.506337 0.5
2 1 0.562189 0.522834 0.5
3 1 0.536158 0.443676 0.5
4 1 0.571363 0.368118 0.5
5 1 0.525682 0.437816 0.5
6 1 0.531666 0.458975 0.5
7 1 0.539959 0.455391 0.5
ITEM: TIMESTEP
520
ITEM: NUMBER OF ATOMS
7
ITEM: BOX BOUNDS ff ff pp
-6.0000000000000000e+00 6.0000000000000000e+00
-6.0000000000000000e+00 6.0000000000000000e+00
-6.0000000000000000e+00 6.0000000000000000e+00
ITEM: ATOMS id type xs ys zs
1 2 0.480504 0.506336 0.5
2 1 0.562187 0.522835 0.5
3 1 0.536159 0.443676 0.5
4 1 0.571361 0.368117 0.5
5 1 0.525682 0.437816 0.5
6 1 0.531667 0.458975 0.5
7 1 0.53996 0.455392 0.5
ITEM: TIMESTEP
530
ITEM: NUMBER OF ATOMS
7
ITEM: BOX BOUNDS ff ff pp
-6.0000000000000000e+00 6.0000000000000000e+00
-6.0000000000000000e+00 6.0000000000000000e+00
-6.0000000000000000e+00 6.0000000000000000e+00
ITEM: ATOMS id type xs ys zs
1 2 0.480503 0.506335 0.5
2 1 0.562186 0.522836 0.5
3 1 0.536161 0.443676 0.5
4 1 0.571359 0.368116 0.5
5 1 0.525683 0.437817 0.5
6 1 0.531669 0.458975 0.5
7 1 0.53996 0.455393 0.5
ITEM: TIMESTEP
540
ITEM: NUMBER OF ATOMS
7
ITEM: BOX BOUNDS ff ff pp
-6.0000000000000000e+00 6.0000000000000000e+00
-6.0000000000000000e+00 6.0000000000000000e+00
-6.0000000000000000e+00 6.0000000000000000e+00
ITEM: ATOMS id type xs ys zs
1 2 0.480502 0.506334 0.5
2 1 0.562184 0.522838 0.5
3 1 0.536163 0.443676 0.5
4 1 0.571356 0.368114 0.5
5 1 0.525684 0.437817 0.5
6 1 0.53167 0.458975 0.5
7 1 0.53996 0.455394 0.5
ITEM: TIMESTEP
550
ITEM: NUMBER OF ATOMS
7
ITEM: BOX BOUNDS ff ff pp
-6.0000000000000000e+00 6.0000000000000000e+00
-6.0000000000000000e+00 6.0000000000000000e+00
-6.0000000000000000e+00 6.0000000000000000e+00
ITEM: ATOMS id type xs ys zs
1 2 0.4805 0.506333 0.5
2 1 0.562182 0.52284 0.5
3 1 0.536166 0.443677 0.5
4 1 0.571353 0.368112 0.5
5 1 0.525685 0.437818 0.5
6 1 0.531672 0.458975 0.5
7 1 0.539961 0.455395 0.5
ITEM: TIMESTEP
560
ITEM: NUMBER OF ATOMS
7
ITEM: BOX BOUNDS ff ff pp
-6.0000000000000000e+00 6.0000000000000000e+00
-6.0000000000000000e+00 6.0000000000000000e+00
-6.0000000000000000e+00 6.0000000000000000e+00
ITEM: ATOMS id type xs ys zs
1 2 0.4805 0.506333 0.5
2 1 0.562181 0.522841 0.5
3 1 0.536167 0.443677 0.5
4 1 0.571352 0.36811 0.5
5 1 0.525686 0.437818 0.5
6 1 0.531673 0.458975 0.5
7 1 0.539961 0.455395 0.5
ITEM: TIMESTEP
570
ITEM: NUMBER OF ATOMS
7
ITEM: BOX BOUNDS ff ff pp
-6.0000000000000000e+00 6.0000000000000000e+00
-6.0000000000000000e+00 6.0000000000000000e+00
-6.0000000000000000e+00 6.0000000000000000e+00
ITEM: ATOMS id type xs ys zs
1 2 0.480498 0.506332 0.5
2 1 0.562179 0.522842 0.5
3 1 0.536169 0.443677 0.5
4 1 0.571349 0.368108 0.5
5 1 0.525687 0.437819 0.5
6 1 0.531675 0.458975 0.5
7 1 0.539961 0.455396 0.5
ITEM: TIMESTEP
580
ITEM: NUMBER OF ATOMS
7
ITEM: BOX BOUNDS ff ff pp
-6.0000000000000000e+00 6.0000000000000000e+00
-6.0000000000000000e+00 6.0000000000000000e+00
-6.0000000000000000e+00 6.0000000000000000e+00
ITEM: ATOMS id type xs ys zs
1 2 0.480497 0.506331 0.5
2 1 0.562178 0.522844 0.5
3 1 0.536171 0.443678 0.5
4 1 0.571347 0.368107 0.5
5 1 0.525688 0.437819 0.5
6 1 0.531676 0.458975 0.5
7 1 0.539962 0.455397 0.5
ITEM: TIMESTEP
590
ITEM: NUMBER OF ATOMS
7
ITEM: BOX BOUNDS ff ff pp
-6.0000000000000000e+00 6.0000000000000000e+00
-6.0000000000000000e+00 6.0000000000000000e+00
-6.0000000000000000e+00 6.0000000000000000e+00
ITEM: ATOMS id type xs ys zs
1 2 0.480496 0.50633 0.5
2 1 0.562177 0.522845 0.5
3 1 0.536173 0.443678 0.5
4 1 0.571345 0.368106 0.5
5 1 0.525688 0.437819 0.5
6 1 0.531677 0.458975 0.5
7 1 0.539962 0.455398 0.5
ITEM: TIMESTEP
600
ITEM: NUMBER OF ATOMS
7
ITEM: BOX BOUNDS ff ff pp
-6.0000000000000000e+00 6.0000000000000000e+00
-6.0000000000000000e+00 6.0000000000000000e+00
-6.0000000000000000e+00 6.0000000000000000e+00
ITEM: ATOMS id type xs ys zs
1 2 0.480495 0.506329 0.5
2 1 0.562175 0.522847 0.5
3 1 0.536175 0.443678 0.5
4 1 0.571342 0.368104 0.5
5 1 0.525689 0.43782 0.5
6 1 0.531679 0.458975 0.5
7 1 0.539963 0.455399 0.5
ITEM: TIMESTEP
610
ITEM: NUMBER OF ATOMS
7
ITEM: BOX BOUNDS ff ff pp
-6.0000000000000000e+00 6.0000000000000000e+00
-6.0000000000000000e+00 6.0000000000000000e+00
-6.0000000000000000e+00 6.0000000000000000e+00
ITEM: ATOMS id type xs ys zs
1 2 0.480494 0.506328 0.5
2 1 0.562173 0.522848 0.5
3 1 0.536177 0.443678 0.5
4 1 0.57134 0.368102 0.5
5 1 0.52569 0.43782 0.5
6 1 0.531681 0.458975 0.5
7 1 0.539963 0.455399 0.5
ITEM: TIMESTEP
620
ITEM: NUMBER OF ATOMS
7
ITEM: BOX BOUNDS ff ff pp
-6.0000000000000000e+00 6.0000000000000000e+00
-6.0000000000000000e+00 6.0000000000000000e+00
-6.0000000000000000e+00 6.0000000000000000e+00
ITEM: ATOMS id type xs ys zs
1 2 0.480493 0.506328 0.5
2 1 0.562172 0.522849 0.5
3 1 0.536179 0.443679 0.5
4 1 0.571338 0.368101 0.5
5 1 0.525691 0.43782 0.5
6 1 0.531682 0.458975 0.5
7 1 0.539963 0.4554 0.5
ITEM: TIMESTEP
630
ITEM: NUMBER OF ATOMS
7
ITEM: BOX BOUNDS ff ff pp
-6.0000000000000000e+00 6.0000000000000000e+00
-6.0000000000000000e+00 6.0000000000000000e+00
-6.0000000000000000e+00 6.0000000000000000e+00
ITEM: ATOMS id type xs ys zs
1 2 0.480492 0.506326 0.5
2 1 0.56217 0.522851 0.5
3 1 0.536181 0.443679 0.5
4 1 0.571335 0.368099 0.5
5 1 0.525692 0.437821 0.5
6 1 0.531683 0.458975 0.5
7 1 0.539964 0.455401 0.5
ITEM: TIMESTEP
640
ITEM: NUMBER OF ATOMS
7
ITEM: BOX BOUNDS ff ff pp
-6.0000000000000000e+00 6.0000000000000000e+00
-6.0000000000000000e+00 6.0000000000000000e+00
-6.0000000000000000e+00 6.0000000000000000e+00
ITEM: ATOMS id type xs ys zs
1 2 0.480491 0.506326 0.5
2 1 0.562169 0.522852 0.5
3 1 0.536183 0.443679 0.5
4 1 0.571333 0.368097 0.5
5 1 0.525693 0.437821 0.5
6 1 0.531685 0.458976 0.5
7 1 0.539964 0.455402 0.5
ITEM: TIMESTEP
650
ITEM: NUMBER OF ATOMS
7
ITEM: BOX BOUNDS ff ff pp
-6.0000000000000000e+00 6.0000000000000000e+00
-6.0000000000000000e+00 6.0000000000000000e+00
-6.0000000000000000e+00 6.0000000000000000e+00
ITEM: ATOMS id type xs ys zs
1 2 0.48049 0.506325 0.5
2 1 0.562168 0.522853 0.5
3 1 0.536185 0.443679 0.5
4 1 0.571331 0.368096 0.5
5 1 0.525693 0.437822 0.5
6 1 0.531686 0.458976 0.5
7 1 0.539964 0.455402 0.5
ITEM: TIMESTEP
660
ITEM: NUMBER OF ATOMS
7
ITEM: BOX BOUNDS ff ff pp
-6.0000000000000000e+00 6.0000000000000000e+00
-6.0000000000000000e+00 6.0000000000000000e+00
-6.0000000000000000e+00 6.0000000000000000e+00
ITEM: ATOMS id type xs ys zs
1 2 0.480489 0.506324 0.5
2 1 0.562166 0.522855 0.5
3 1 0.536187 0.44368 0.5
4 1 0.571329 0.368094 0.5
5 1 0.525694 0.437822 0.5
6 1 0.531688 0.458976 0.5
7 1 0.539965 0.455403 0.5
ITEM: TIMESTEP
670
ITEM: NUMBER OF ATOMS
7
ITEM: BOX BOUNDS ff ff pp
-6.0000000000000000e+00 6.0000000000000000e+00
-6.0000000000000000e+00 6.0000000000000000e+00
-6.0000000000000000e+00 6.0000000000000000e+00
ITEM: ATOMS id type xs ys zs
1 2 0.480488 0.506323 0.5
2 1 0.562164 0.522857 0.5
3 1 0.536189 0.44368 0.5
4 1 0.571326 0.368092 0.5
5 1 0.525695 0.437823 0.5
6 1 0.531689 0.458976 0.5
7 1 0.539965 0.455404 0.5
ITEM: TIMESTEP
680
ITEM: NUMBER OF ATOMS
7
ITEM: BOX BOUNDS ff ff pp
-6.0000000000000000e+00 6.0000000000000000e+00
-6.0000000000000000e+00 6.0000000000000000e+00
-6.0000000000000000e+00 6.0000000000000000e+00
ITEM: ATOMS id type xs ys zs
1 2 0.480487 0.506322 0.5
2 1 0.562163 0.522858 0.5
3 1 0.536191 0.44368 0.5
4 1 0.571324 0.368091 0.5
5 1 0.525696 0.437823 0.5
6 1 0.53169 0.458976 0.5
7 1 0.539965 0.455405 0.5
ITEM: TIMESTEP
690
ITEM: NUMBER OF ATOMS
7
ITEM: BOX BOUNDS ff ff pp
-6.0000000000000000e+00 6.0000000000000000e+00
-6.0000000000000000e+00 6.0000000000000000e+00
-6.0000000000000000e+00 6.0000000000000000e+00
ITEM: ATOMS id type xs ys zs
1 2 0.480486 0.506322 0.5
2 1 0.562162 0.522859 0.5
3 1 0.536192 0.443681 0.5
4 1 0.571322 0.368089 0.5
5 1 0.525697 0.437823 0.5
6 1 0.531692 0.458976 0.5
7 1 0.539966 0.455406 0.5
ITEM: TIMESTEP
700
ITEM: NUMBER OF ATOMS
7
ITEM: BOX BOUNDS ff ff pp
-6.0000000000000000e+00 6.0000000000000000e+00
-6.0000000000000000e+00 6.0000000000000000e+00
-6.0000000000000000e+00 6.0000000000000000e+00
ITEM: ATOMS id type xs ys zs
1 2 0.480484 0.50632 0.5
2 1 0.562159 0.522861 0.5
3 1 0.536195 0.443681 0.5
4 1 0.571319 0.368087 0.5
5 1 0.525698 0.437824 0.5
6 1 0.531694 0.458976 0.5
7 1 0.539966 0.455407 0.5
ITEM: TIMESTEP
710
ITEM: NUMBER OF ATOMS
7
ITEM: BOX BOUNDS ff ff pp
-6.0000000000000000e+00 6.0000000000000000e+00
-6.0000000000000000e+00 6.0000000000000000e+00
-6.0000000000000000e+00 6.0000000000000000e+00