ITEM: TIMESTEP
0
ITEM: NUMBER OF ATOMS
7
ITEM: BOX BOUNDS ff ff pp
-6.0000000000000000e+00 6.0000000000000000e+00
-6.0000000000000000e+00 6.0000000000000000e+00
-6.0000000000000000e+00 6.0000000000000000e+00
ITEM: ATOMS id type xs ys zs
1 2 0.5 0.5 0.5
2 1 0.583333 0.5 0.5
3 1 0.545288 0.425858 0.5
4 1 0.564632 0.344801 0.5
5 1 0.532117 0.421529 0.5
6 1 0.543283 0.441649 0.5
7 1 0.547727 0.437932 0.5
ITEM: TIMESTEP
10
ITEM: NUMBER OF ATOMS
7
ITEM: BOX BOUNDS ff ff pp
-6.0000000000000000e+00 6.0000000000000000e+00
-6.0000000000000000e+00 6.0000000000000000e+00
-6.0000000000000000e+00 6.0000000000000000e+00
ITEM: ATOMS id type xs ys zs
1 2 0.50017 0.498916 0.5
2 1 0.58346 0.499985 0.5
3 1 0.545263 0.425916 0.5
4 1 0.56447 0.345106 0.5
5 1 0.531597 0.422398 0.5
6 1 0.543271 0.441736 0.5
7 1 0.548149 0.437713 0.5
ITEM: TIMESTEP
20
ITEM: NUMBER OF ATOMS
7
ITEM: BOX BOUNDS ff ff pp
-6.0000000000000000e+00 6.0000000000000000e+00
-6.0000000000000000e+00 6.0000000000000000e+00
-6.0000000000000000e+00 6.0000000000000000e+00
ITEM: ATOMS id type xs ys zs
1 2 0.500088 0.498246 0.5
2 1 0.583417 0.500042 0.5
3 1 0.544625 0.426217 0.5
4 1 0.564013 0.345267 0.5
5 1 0.5321 0.422484 0.5
6 1 0.542931 0.44206 0.5
7 1 0.549205 0.437454 0.5
ITEM: TIMESTEP
30
ITEM: NUMBER OF ATOMS
7
ITEM: BOX BOUNDS ff ff pp
-6.0000000000000000e+00 6.0000000000000000e+00
-6.0000000000000000e+00 6.0000000000000000e+00
-6.0000000000000000e+00 6.0000000000000000e+00
ITEM: ATOMS id type xs ys zs
1 2 0.500079 0.498166 0.5
2 1 0.583402 0.500027 0.5
3 1 0.544532 0.426247 0.5
4 1 0.563953 0.345278 0.5
5 1 0.53223 0.422512 0.5
6 1 0.542841 0.442096 0.5
7 1 0.549343 0.437445 0.5
ITEM: TIMESTEP
40
ITEM: NUMBER OF ATOMS
7
ITEM: BOX BOUNDS ff ff pp
-6.0000000000000000e+00 6.0000000000000000e+00
-6.0000000000000000e+00 6.0000000000000000e+00
-6.0000000000000000e+00 6.0000000000000000e+00
ITEM: ATOMS id type xs ys zs
1 2 0.500065 0.498032 0.5
2 1 0.58338 0.499997 0.5
3 1 0.544396 0.426309 0.5
4 1 0.563853 0.3453 0.5
5 1 0.532451 0.422562 0.5
6 1 0.542663 0.442143 0.5
7 1 0.549571 0.437427 0.5
ITEM: TIMESTEP
50
ITEM: NUMBER OF ATOMS
7
ITEM: BOX BOUNDS ff ff pp
-6.0000000000000000e+00 6.0000000000000000e+00
-6.0000000000000000e+00 6.0000000000000000e+00
-6.0000000000000000e+00 6.0000000000000000e+00
ITEM: ATOMS id type xs ys zs
1 2 0.50006 0.497972 0.5
2 1 0.583371 0.499979 0.5
3 1 0.544343 0.426338 0.5
4 1 0.563808 0.345311 0.5
5 1 0.532554 0.422586 0.5
6 1 0.542569 0.442164 0.5
7 1 0.549675 0.43742 0.5
ITEM: TIMESTEP
60
ITEM: NUMBER OF ATOMS
7
ITEM: BOX BOUNDS ff ff pp
-6.0000000000000000e+00 6.0000000000000000e+00
-6.0000000000000000e+00 6.0000000000000000e+00
-6.0000000000000000e+00 6.0000000000000000e+00
ITEM: ATOMS id type xs ys zs
1 2 0.500059 0.497962 0.5
2 1 0.583369 0.499976 0.5
3 1 0.544335 0.426342 0.5
4 1 0.563801 0.345313 0.5
5 1 0.532571 0.42259 0.5
6 1 0.542552 0.442168 0.5
7 1 0.549692 0.437419 0.5
ITEM: TIMESTEP
70
ITEM: NUMBER OF ATOMS
7
ITEM: BOX BOUNDS ff ff pp
-6.0000000000000000e+00 6.0000000000000000e+00
-6.0000000000000000e+00 6.0000000000000000e+00
-6.0000000000000000e+00 6.0000000000000000e+00
ITEM: ATOMS id type xs ys zs
1 2 0.500058 0.49795 0.5
2 1 0.583367 0.499973 0.5
3 1 0.544326 0.426348 0.5
4 1 0.563791 0.345315 0.5
5 1 0.532593 0.422595 0.5
6 1 0.542531 0.442172 0.5
7 1 0.549713 0.437418 0.5
ITEM: TIMESTEP
80
ITEM: NUMBER OF ATOMS
7
ITEM: BOX BOUNDS ff ff pp
-6.0000000000000000e+00 6.0000000000000000e+00
-6.0000000000000000e+00 6.0000000000000000e+00
-6.0000000000000000e+00 6.0000000000000000e+00
ITEM: ATOMS id type xs ys zs
1 2 0.500057 0.497943 0.5
2 1 0.583366 0.499971 0.5
3 1 0.544322 0.426351 0.5
4 1 0.563785 0.345316 0.5
5 1 0.532605 0.422598 0.5
6 1 0.542519 0.442174 0.5
7 1 0.549725 0.437418 0.5
ITEM: TIMESTEP
90
ITEM: NUMBER OF ATOMS
7
ITEM: BOX BOUNDS ff ff pp
-6.0000000000000000e+00 6.0000000000000000e+00
-6.0000000000000000e+00 6.0000000000000000e+00
-6.0000000000000000e+00 6.0000000000000000e+00
ITEM: ATOMS id type xs ys zs
1 2 0.500057 0.497942 0.5
2 1 0.583366 0.499971 0.5
3 1 0.544321 0.426351 0.5
4 1 0.563785 0.345316 0.5
5 1 0.532606 0.422598 0.5
6 1 0.542519 0.442174 0.5
7 1 0.549726 0.437418 0.5
ITEM: TIMESTEP
100
ITEM: NUMBER OF ATOMS
7
ITEM: BOX BOUNDS ff ff pp
-6.0000000000000000e+00 6.0000000000000000e+00
-6.0000000000000000e+00 6.0000000000000000e+00
-6.0000000000000000e+00 6.0000000000000000e+00
ITEM: ATOMS id type xs ys zs
1 2 0.500057 0.497941 0.5
2 1 0.583365 0.499971 0.5
3 1 0.544321 0.426351 0.5
4 1 0.563783 0.345315 0.5
5 1 0.532607 0.422598 0.5
6 1 0.542517 0.442175 0.5
7 1 0.549728 0.437418 0.5
ITEM: TIMESTEP
110
ITEM: NUMBER OF ATOMS
7
ITEM: BOX BOUNDS ff ff pp
-6.0000000000000000e+00 6.0000000000000000e+00
-6.0000000000000000e+00 6.0000000000000000e+00
-6.0000000000000000e+00 6.0000000000000000e+00
ITEM: ATOMS id type xs ys zs
1 2 0.500056 0.49794 0.5
2 1 0.583365 0.499971 0.5
3 1 0.544322 0.426351 0.5
4 1 0.563782 0.345315 0.5
5 1 0.532609 0.422599 0.5
6 1 0.542517 0.442175 0.5
7 1 0.549729 0.437418 0.5
ITEM: TIMESTEP
120
ITEM: NUMBER OF ATOMS
7
ITEM: BOX BOUNDS ff ff pp
-6.0000000000000000e+00 6.0000000000000000e+00
-6.0000000000000000e+00 6.0000000000000000e+00
-6.0000000000000000e+00 6.0000000000000000e+00
ITEM: ATOMS id type xs ys zs
1 2 0.500056 0.49794 0.5
2 1 0.583365 0.499972 0.5
3 1 0.544322 0.426351 0.5
4 1 0.563781 0.345315 0.5
5 1 0.532609 0.422599 0.5
6 1 0.542517 0.442175 0.5
7 1 0.549729 0.437419 0.5
ITEM: TIMESTEP
130
ITEM: NUMBER OF ATOMS
7
ITEM: BOX BOUNDS ff ff pp
-6.0000000000000000e+00 6.0000000000000000e+00
-6.0000000000000000e+00 6.0000000000000000e+00
-6.0000000000000000e+00 6.0000000000000000e+00
ITEM: ATOMS id type xs ys zs
1 2 0.500056 0.49794 0.5
2 1 0.583364 0.499972 0.5
3 1 0.544323 0.426351 0.5
4 1 0.56378 0.345315 0.5
5 1 0.532609 0.422599 0.5
6 1 0.542517 0.442175 0.5
7 1 0.54973 0.437419 0.5
ITEM: TIMESTEP
140
ITEM: NUMBER OF ATOMS
7
ITEM: BOX BOUNDS ff ff pp
-6.0000000000000000e+00 6.0000000000000000e+00
-6.0000000000000000e+00 6.0000000000000000e+00
-6.0000000000000000e+00 6.0000000000000000e+00
ITEM: ATOMS id type xs ys zs
1 2 0.500055 0.497939 0.5
2 1 0.583364 0.499973 0.5
3 1 0.544323 0.426351 0.5
4 1 0.563779 0.345314 0.5
5 1 0.53261 0.422599 0.5
6 1 0.542518 0.442174 0.5
7 1 0.54973 0.437419 0.5
ITEM: TIMESTEP
150
ITEM: NUMBER OF ATOMS
7
ITEM: BOX BOUNDS ff ff pp
-6.0000000000000000e+00 6.0000000000000000e+00
-6.0000000000000000e+00 6.0000000000000000e+00
-6.0000000000000000e+00 6.0000000000000000e+00
ITEM: ATOMS id type xs ys zs
1 2 0.500055 0.497939 0.5
2 1 0.583364 0.499973 0.5
3 1 0.544324 0.426351 0.5
4 1 0.563779 0.345314 0.5
5 1 0.53261 0.422599 0.5
6 1 0.542518 0.442174 0.5
7 1 0.54973 0.437419 0.5
ITEM: TIMESTEP
160
ITEM: NUMBER OF ATOMS
7
ITEM: BOX BOUNDS ff ff pp
-6.0000000000000000e+00 6.0000000000000000e+00
-6.0000000000000000e+00 6.0000000000000000e+00
-6.0000000000000000e+00 6.0000000000000000e+00
ITEM: ATOMS id type xs ys zs
1 2 0.500055 0.497939 0.5
2 1 0.583363 0.499973 0.5
3 1 0.544324 0.426351 0.5
4 1 0.563778 0.345314 0.5
5 1 0.53261 0.422599 0.5
6 1 0.542518 0.442174 0.5
7 1 0.54973 0.437419 0.5
ITEM: TIMESTEP
170
ITEM: NUMBER OF ATOMS
7
ITEM: BOX BOUNDS ff ff pp
-6.0000000000000000e+00 6.0000000000000000e+00
-6.0000000000000000e+00 6.0000000000000000e+00
-6.0000000000000000e+00 6.0000000000000000e+00
ITEM: ATOMS id type xs ys zs
1 2 0.500055 0.497939 0.5
2 1 0.583363 0.499974 0.5
3 1 0.544325 0.426351 0.5
4 1 0.563778 0.345313 0.5
5 1 0.53261 0.422599 0.5
6 1 0.542519 0.442174 0.5
7 1 0.54973 0.437419 0.5
ITEM: TIMESTEP
180
ITEM: NUMBER OF ATOMS
7
ITEM: BOX BOUNDS ff ff pp
-6.0000000000000000e+00 6.0000000000000000e+00
-6.0000000000000000e+00 6.0000000000000000e+00
-6.0000000000000000e+00 6.0000000000000000e+00
ITEM: ATOMS id type xs ys zs
1 2 0.500054 0.497939 0.5
2 1 0.583363 0.499974 0.5
3 1 0.544325 0.426351 0.5
4 1 0.563777 0.345313 0.5
5 1 0.532611 0.422599 0.5
6 1 0.542519 0.442174 0.5
7 1 0.54973 0.437419 0.5
ITEM: TIMESTEP
190
ITEM: NUMBER OF ATOMS
7
ITEM: BOX BOUNDS ff ff pp
-6.0000000000000000e+00 6.0000000000000000e+00
-6.0000000000000000e+00 6.0000000000000000e+00
-6.0000000000000000e+00 6.0000000000000000e+00
ITEM: ATOMS id type xs ys zs
1 2 0.500054 0.497939 0.5
2 1 0.583363 0.499974 0.5
3 1 0.544326 0.426351 0.5
4 1 0.563777 0.345313 0.5
5 1 0.532611 0.422599 0.5
6 1 0.542519 0.442174 0.5
7 1 0.54973 0.43742 0.5
ITEM: TIMESTEP
200
ITEM: NUMBER OF ATOMS
7
ITEM: BOX BOUNDS ff ff pp
-6.0000000000000000e+00 6.0000000000000000e+00
-6.0000000000000000e+00 6.0000000000000000e+00
-6.0000000000000000e+00 6.0000000000000000e+00
ITEM: ATOMS id type xs ys zs
1 2 0.500054 0.497938 0.5
2 1 0.583362 0.499975 0.5
3 1 0.544326 0.426351 0.5
4 1 0.563776 0.345312 0.5
5 1 0.532611 0.422599 0.5
6 1 0.54252 0.442174 0.5
7 1 0.549731 0.43742 0.5
ITEM: TIMESTEP
210
ITEM: NUMBER OF ATOMS
7
ITEM: BOX BOUNDS ff ff pp
-6.0000000000000000e+00 6.0000000000000000e+00
-6.0000000000000000e+00 6.0000000000000000e+00
-6.0000000000000000e+00 6.0000000000000000e+00
ITEM: ATOMS id type xs ys zs
1 2 0.500053 0.497938 0.5
2 1 0.583362 0.499975 0.5
3 1 0.544327 0.426351 0.5
4 1 0.563775 0.345312 0.5
5 1 0.532611 0.422599 0.5
6 1 0.54252 0.442174 0.5
7 1 0.549731 0.43742 0.5
ITEM: TIMESTEP
220
ITEM: NUMBER OF ATOMS
7
ITEM: BOX BOUNDS ff ff pp
-6.0000000000000000e+00 6.0000000000000000e+00
-6.0000000000000000e+00 6.0000000000000000e+00
-6.0000000000000000e+00 6.0000000000000000e+00
ITEM: ATOMS id type xs ys zs
1 2 0.500053 0.497938 0.5
2 1 0.583362 0.499976 0.5
3 1 0.544327 0.426351 0.5
4 1 0.563774 0.345312 0.5
5 1 0.532612 0.422599 0.5
6 1 0.542521 0.442174 0.5
7 1 0.549731 0.43742 0.5
ITEM: TIMESTEP
230
ITEM: NUMBER OF ATOMS
7
ITEM: BOX BOUNDS ff ff pp
-6.0000000000000000e+00 6.0000000000000000e+00
-6.0000000000000000e+00 6.0000000000000000e+00
-6.0000000000000000e+00 6.0000000000000000e+00
ITEM: ATOMS id type xs ys zs
1 2 0.500053 0.497938 0.5
2 1 0.583361 0.499976 0.5
3 1 0.544328 0.426351 0.5
4 1 0.563774 0.345311 0.5
5 1 0.532612 0.422599 0.5
6 1 0.542521 0.442174 0.5
7 1 0.549731 0.43742 0.5
ITEM: TIMESTEP
240
ITEM: NUMBER OF ATOMS
7
ITEM: BOX BOUNDS ff ff pp
-6.0000000000000000e+00 6.0000000000000000e+00
-6.0000000000000000e+00 6.0000000000000000e+00
-6.0000000000000000e+00 6.0000000000000000e+00
ITEM: ATOMS id type xs ys zs
1 2 0.500053 0.497938 0.5
2 1 0.583361 0.499977 0.5
3 1 0.544328 0.426351 0.5
4 1 0.563773 0.345311 0.5
5 1 0.532612 0.422599 0.5
6 1 0.542521 0.442174 0.5
7 1 0.549731 0.43742 0.5
ITEM: TIMESTEP
250
ITEM: NUMBER OF ATOMS
7
ITEM: BOX BOUNDS ff ff pp
-6.0000000000000000e+00 6.0000000000000000e+00
-6.0000000000000000e+00 6.0000000000000000e+00
-6.0000000000000000e+00 6.0000000000000000e+00
ITEM: ATOMS id type xs ys zs
1 2 0.500052 0.497937 0.5
2 1 0.583361 0.499977 0.5
3 1 0.544329 0.426351 0.5
4 1 0.563772 0.345311 0.5
5 1 0.532612 0.422599 0.5
6 1 0.542522 0.442174 0.5
7 1 0.549731 0.437421 0.5
ITEM: TIMESTEP
260
ITEM: NUMBER OF ATOMS
7
ITEM: BOX BOUNDS ff ff pp
-6.0000000000000000e+00 6.0000000000000000e+00
-6.0000000000000000e+00 6.0000000000000000e+00
-6.0000000000000000e+00 6.0000000000000000e+00
ITEM: ATOMS id type xs ys zs
1 2 0.500052 0.497937 0.5
2 1 0.58336 0.499977 0.5
3 1 0.54433 0.426351 0.5
4 1 0.563772 0.34531 0.5
5 1 0.532612 0.422599 0.5
6 1 0.542522 0.442174 0.5
7 1 0.549731 0.437421 0.5
ITEM: TIMESTEP
270
ITEM: NUMBER OF ATOMS
7
ITEM: BOX BOUNDS ff ff pp
-6.0000000000000000e+00 6.0000000000000000e+00
-6.0000000000000000e+00 6.0000000000000000e+00
-6.0000000000000000e+00 6.0000000000000000e+00
ITEM: ATOMS id type xs ys zs
1 2 0.500052 0.497937 0.5
2 1 0.58336 0.499978 0.5
3 1 0.54433 0.426351 0.5
4 1 0.563771 0.34531 0.5
5 1 0.532613 0.422599 0.5
6 1 0.542523 0.442174 0.5
7 1 0.549731 0.437421 0.5
ITEM: TIMESTEP
280
ITEM: NUMBER OF ATOMS
7
ITEM: BOX BOUNDS ff ff pp
-6.0000000000000000e+00 6.0000000000000000e+00
-6.0000000000000000e+00 6.0000000000000000e+00
-6.0000000000000000e+00 6.0000000000000000e+00
ITEM: ATOMS id type xs ys zs
1 2 0.500051 0.497937 0.5
2 1 0.58336 0.499978 0.5
3 1 0.544331 0.426351 0.5
4 1 0.56377 0.34531 0.5
5 1 0.532613 0.422599 0.5
6 1 0.542523 0.442173 0.5
7 1 0.549732 0.437421 0.5
ITEM: TIMESTEP
290
ITEM: NUMBER OF ATOMS
7
ITEM: BOX BOUNDS ff ff pp
-6.0000000000000000e+00 6.0000000000000000e+00
-6.0000000000000000e+00 6.0000000000000000e+00
-6.0000000000000000e+00 6.0000000000000000e+00
ITEM: ATOMS id type xs ys zs
1 2 0.500051 0.497937 0.5
2 1 0.583359 0.499978 0.5
3 1 0.544331 0.426351 0.5
4 1 0.56377 0.34531 0.5
5 1 0.532613 0.422599 0.5
6 1 0.542523 0.442173 0.5
7 1 0.549732 0.437421 0.5
ITEM: TIMESTEP
300
ITEM: NUMBER OF ATOMS
7
ITEM: BOX BOUNDS ff ff pp
-6.0000000000000000e+00 6.0000000000000000e+00
-6.0000000000000000e+00 6.0000000000000000e+00
-6.0000000000000000e+00 6.0000000000000000e+00
ITEM: ATOMS id type xs ys zs
1 2 0.500051 0.497937 0.5
2 1 0.583359 0.499979 0.5
3 1 0.544332 0.426351 0.5
4 1 0.563769 0.345309 0.5
5 1 0.532613 0.422599 0.5
6 1 0.542524 0.442173 0.5
7 1 0.549732 0.437421 0.5
ITEM: TIMESTEP
310
ITEM: NUMBER OF ATOMS
7
ITEM: BOX BOUNDS ff ff pp
-6.0000000000000000e+00 6.0000000000000000e+00
-6.0000000000000000e+00 6.0000000000000000e+00
-6.0000000000000000e+00 6.0000000000000000e+00
ITEM: ATOMS id type xs ys zs
1 2 0.500051 0.497936 0.5
2 1 0.583359 0.499979 0.5
3 1 0.544332 0.426351 0.5
4 1 0.563768 0.345309 0.5
5 1 0.532614 0.422599 0.5
6 1 0.542524 0.442173 0.5
7 1 0.549732 0.437422 0.5
ITEM: TIMESTEP
320
ITEM: NUMBER OF ATOMS
7
ITEM: BOX BOUNDS ff ff pp
-6.0000000000000000e+00 6.0000000000000000e+00
-6.0000000000000000e+00 6.0000000000000000e+00
-6.0000000000000000e+00 6.0000000000000000e+00
ITEM: ATOMS id type xs ys zs
1 2 0.50005 0.497936 0.5
2 1 0.583359 0.49998 0.5
3 1 0.544332 0.426351 0.5
4 1 0.563768 0.345309 0.5
5 1 0.532614 0.4226 0.5
6 1 0.542524 0.442173 0.5
7 1 0.549732 0.437422 0.5
ITEM: TIMESTEP
330
ITEM: NUMBER OF ATOMS
7
ITEM: BOX BOUNDS ff ff pp
-6.0000000000000000e+00 6.0000000000000000e+00
-6.0000000000000000e+00 6.0000000000000000e+00
-6.0000000000000000e+00 6.0000000000000000e+00
ITEM: ATOMS id type xs ys zs
1 2 0.50005 0.497936 0.5
2 1 0.583358 0.49998 0.5
3 1 0.544333 0.426351 0.5
4 1 0.563767 0.345308 0.5
5 1 0.532614 0.4226 0.5
6 1 0.542525 0.442173 0.5
7 1 0.549732 0.437422 0.5
ITEM: TIMESTEP
340
ITEM: NUMBER OF ATOMS
7
ITEM: BOX BOUNDS ff ff pp
-6.0000000000000000e+00 6.0000000000000000e+00
-6.0000000000000000e+00 6.0000000000000000e+00
-6.0000000000000000e+00 6.0000000000000000e+00
ITEM: ATOMS id type xs ys zs
1 2 0.50005 0.497936 0.5
2 1 0.583358 0.49998 0.5
3 1 0.544334 0.426351 0.5
4 1 0.563767 0.345308 0.5
5 1 0.532614 0.4226 0.5
6 1 0.542525 0.442173 0.5
7 1 0.549732 0.437422 0.5
ITEM: TIMESTEP
350
ITEM: NUMBER OF ATOMS
7
ITEM: BOX BOUNDS ff ff pp
-6.0000000000000000e+00 6.0000000000000000e+00
-6.0000000000000000e+00 6.0000000000000000e+00
-6.0000000000000000e+00 6.0000000000000000e+00
ITEM: ATOMS id type xs ys zs
1 2 0.50005 0.497936 0.5
2 1 0.583358 0.499981 0.5
3 1 0.544334 0.426351 0.5
4 1 0.563766 0.345308 0.5
5 1 0.532614 0.4226 0.5
6 1 0.542525 0.442173 0.5
7 1 0.549732 0.437422 0.5
ITEM: TIMESTEP
360
ITEM: NUMBER OF ATOMS
7
ITEM: BOX BOUNDS ff ff pp
-6.0000000000000000e+00 6.0000000000000000e+00
-6.0000000000000000e+00 6.0000000000000000e+00
-6.0000000000000000e+00 6.0000000000000000e+00
ITEM: ATOMS id type xs ys zs
1 2 0.500049 0.497936 0.5
2 1 0.583357 0.499981 0.5
3 1 0.544335 0.426351 0.5
4 1 0.563765 0.345307 0.5
5 1 0.532615 0.4226 0.5
6 1 0.542526 0.442173 0.5
7 1 0.549733 0.437422 0.5
ITEM: TIMESTEP
370
ITEM: NUMBER OF ATOMS
7
ITEM: BOX BOUNDS ff ff pp
-6.0000000000000000e+00 6.0000000000000000e+00
-6.0000000000000000e+00 6.0000000000000000e+00
-6.0000000000000000e+00 6.0000000000000000e+00
ITEM: ATOMS id type xs ys zs
1 2 0.500049 0.497935 0.5
2 1 0.583357 0.499982 0.5
3 1 0.544335 0.42635 0.5
4 1 0.563765 0.345307 0.5
5 1 0.532615 0.4226 0.5
6 1 0.542526 0.442173 0.5
7 1 0.549733 0.437422 0.5
ITEM: TIMESTEP
380
ITEM: NUMBER OF ATOMS
7
ITEM: BOX BOUNDS ff ff pp
-6.0000000000000000e+00 6.0000000000000000e+00
-6.0000000000000000e+00 6.0000000000000000e+00
-6.0000000000000000e+00 6.0000000000000000e+00
ITEM: ATOMS id type xs ys zs
1 2 0.500049 0.497935 0.5
2 1 0.583357 0.499982 0.5
3 1 0.544336 0.42635 0.5
4 1 0.563764 0.345307 0.5
5 1 0.532615 0.4226 0.5
6 1 0.542526 0.442173 0.5
7 1 0.549733 0.437423 0.5
ITEM: TIMESTEP
390
ITEM: NUMBER OF ATOMS
7
ITEM: BOX BOUNDS ff ff pp
-6.0000000000000000e+00 6.0000000000000000e+00
-6.0000000000000000e+00 6.0000000000000000e+00
-6.0000000000000000e+00 6.0000000000000000e+00
ITEM: ATOMS id type xs ys zs
1 2 0.500048 0.497935 0.5
2 1 0.583357 0.499982 0.5
3 1 0.544336 0.42635 0.5
4 1 0.563763 0.345307 0.5
5 1 0.532615 0.4226 0.5
6 1 0.542527 0.442173 0.5
7 1 0.549733 0.437423 0.5
ITEM: TIMESTEP
400
ITEM: NUMBER OF ATOMS
7
ITEM: BOX BOUNDS ff ff pp
-6.0000000000000000e+00 6.0000000000000000e+00
-6.0000000000000000e+00 6.0000000000000000e+00
-6.0000000000000000e+00 6.0000000000000000e+00
ITEM: ATOMS id type xs ys zs
1 2 0.500048 0.497935 0.5
2 1 0.583356 0.499983 0.5
3 1 0.544337 0.42635 0.5
4 1 0.563763 0.345306 0.5
5 1 0.532615 0.4226 0.5
6 1 0.542527 0.442173 0.5
7 1 0.549733 0.437423 0.5
ITEM: TIMESTEP
410
ITEM: NUMBER OF ATOMS
7
ITEM: BOX BOUNDS ff ff pp
-6.0000000000000000e+00 6.0000000000000000e+00
-6.0000000000000000e+00 6.0000000000000000e+00
-6.0000000000000000e+00 6.0000000000000000e+00
ITEM: ATOMS id type xs ys zs
1 2 0.500048 0.497935 0.5
2 1 0.583356 0.499983 0.5
3 1 0.544337 0.42635 0.5
4 1 0.563762 0.345306 0.5
5 1 0.532616 0.4226 0.5
6 1 0.542527 0.442173 0.5
7 1 0.549733 0.437423 0.5
ITEM: TIMESTEP
420
ITEM: NUMBER OF ATOMS
7
ITEM: BOX BOUNDS ff ff pp
-6.0000000000000000e+00 6.0000000000000000e+00
-6.0000000000000000e+00 6.0000000000000000e+00
-6.0000000000000000e+00 6.0000000000000000e+00
ITEM: ATOMS id type xs ys zs
1 2 0.500048 0.497935 0.5
2 1 0.583356 0.499983 0.5
3 1 0.544338 0.42635 0.5
4 1 0.563762 0.345306 0.5
5 1 0.532616 0.4226 0.5
6 1 0.542528 0.442172 0.5
7 1 0.549733 0.437423 0.5
ITEM: TIMESTEP
430
ITEM: NUMBER OF ATOMS
7
ITEM: BOX BOUNDS ff ff pp
-6.0000000000000000e+00 6.0000000000000000e+00
-6.0000000000000000e+00 6.0000000000000000e+00
-6.0000000000000000e+00 6.0000000000000000e+00
ITEM: ATOMS id type xs ys zs
1 2 0.500047 0.497934 0.5
2 1 0.583355 0.499984 0.5
3 1 0.544338 0.42635 0.5
4 1 0.563761 0.345305 0.5
5 1 0.532616 0.4226 0.5
6 1 0.542528 0.442172 0.5
7 1 0.549733 0.437423 0.5
ITEM: TIMESTEP
440
ITEM: NUMBER OF ATOMS
7
ITEM: BOX BOUNDS ff ff pp
-6.0000000000000000e+00 6.0000000000000000e+00
-6.0000000000000000e+00 6.0000000000000000e+00
-6.0000000000000000e+00 6.0000000000000000e+00
ITEM: ATOMS id type xs ys zs
1 2 0.500047 0.497934 0.5
2 1 0.583355 0.499984 0.5
3 1 0.544338 0.42635 0.5
4 1 0.56376 0.345305 0.5
5 1 0.532616 0.4226 0.5
6 1 0.542528 0.442172 0.5
7 1 0.549733 0.437423 0.5
ITEM: TIMESTEP
450
ITEM: NUMBER OF ATOMS
7
ITEM: BOX BOUNDS ff ff pp
-6.0000000000000000e+00 6.0000000000000000e+00
-6.0000000000000000e+00 6.0000000000000000e+00
-6.0000000000000000e+00 6.0000000000000000e+00
ITEM: ATOMS id type xs ys zs
1 2 0.500047 0.497934 0.5
2 1 0.583355 0.499985 0.5
3 1 0.544339 0.42635 0.5
4 1 0.56376 0.345305 0.5
5 1 0.532616 0.4226 0.5
6 1 0.542529 0.442172 0.5
7 1 0.549734 0.437424 0.5
ITEM: TIMESTEP
460
ITEM: NUMBER OF ATOMS
7
ITEM: BOX BOUNDS ff ff pp
-6.0000000000000000e+00 6.0000000000000000e+00
-6.0000000000000000e+00 6.0000000000000000e+00
-6.0000000000000000e+00 6.0000000000000000e+00
ITEM: ATOMS id type xs ys zs
1 2 0.500047 0.497934 0.5
2 1 0.583355 0.499985 0.5
3 1 0.54434 0.42635 0.5
4 1 0.563759 0.345304 0.5
5 1 0.532617 0.4226 0.5
6 1 0.542529 0.442172 0.5
7 1 0.549734 0.437424 0.5
ITEM: TIMESTEP
470
ITEM: NUMBER OF ATOMS
7
ITEM: BOX BOUNDS ff ff pp
-6.0000000000000000e+00 6.0000000000000000e+00
-6.0000000000000000e+00 6.0000000000000000e+00
-6.0000000000000000e+00 6.0000000000000000e+00
ITEM: ATOMS id type xs ys zs
1 2 0.500046 0.497934 0.5
2 1 0.583354 0.499985 0.5
3 1 0.54434 0.42635 0.5
4 1 0.563759 0.345304 0.5
5 1 0.532617 0.4226 0.5
6 1 0.54253 0.442172 0.5
7 1 0.549734 0.437424 0.5
ITEM: TIMESTEP
480
ITEM: NUMBER OF ATOMS
7
ITEM: BOX BOUNDS ff ff pp
-6.0000000000000000e+00 6.0000000000000000e+00
-6.0000000000000000e+00 6.0000000000000000e+00
-6.0000000000000000e+00 6.0000000000000000e+00
ITEM: ATOMS id type xs ys zs
1 2 0.500046 0.497934 0.5
2 1 0.583354 0.499986 0.5
3 1 0.544341 0.42635 0.5
4 1 0.563758 0.345304 0.5
5 1 0.532617 0.4226 0.5
6 1 0.54253 0.442172 0.5
7 1 0.549734 0.437424 0.5
ITEM: TIMESTEP
490
ITEM: NUMBER OF ATOMS
7
ITEM: BOX BOUNDS ff ff pp
-6.0000000000000000e+00 6.0000000000000000e+00
-6.0000000000000000e+00 6.0000000000000000e+00
-6.0000000000000000e+00 6.0000000000000000e+00
ITEM: ATOMS id type xs ys zs
1 2 0.500046 0.497934 0.5
2 1 0.583354 0.499986 0.5
3 1 0.544341 0.42635 0.5
4 1 0.563757 0.345304 0.5
5 1 0.532617 0.4226 0.5
6 1 0.54253 0.442172 0.5
7 1 0.549734 0.437424 0.5
ITEM: TIMESTEP
500
ITEM: NUMBER OF ATOMS
7
ITEM: BOX BOUNDS ff ff pp
-6.0000000000000000e+00 6.0000000000000000e+00
-6.0000000000000000e+00 6.0000000000000000e+00
-6.0000000000000000e+00 6.0000000000000000e+00
ITEM: ATOMS id type xs ys zs
1 2 0.500046 0.497933 0.5
2 1 0.583354 0.499986 0.5
3 1 0.544341 0.42635 0.5
4 1 0.563757 0.345303 0.5
5 1 0.532617 0.4226 0.5
6 1 0.542531 0.442172 0.5
7 1 0.549734 0.437424 0.5
ITEM: TIMESTEP
510
ITEM: NUMBER OF ATOMS
7
ITEM: BOX BOUNDS ff ff pp
-6.0000000000000000e+00 6.0000000000000000e+00
-6.0000000000000000e+00 6.0000000000000000e+00
-6.0000000000000000e+00 6.0000000000000000e+00
ITEM: ATOMS id type xs ys zs
1 2 0.500045 0.497933 0.5
2 1 0.583353 0.499987 0.5
3 1 0.544342 0.42635 0.5
4 1 0.563756 0.345303 0.5
5 1 0.532618 0.4226 0.5
6 1 0.542531 0.442172 0.5
7 1 0.549734 0.437424 0.5
ITEM: TIMESTEP
520
ITEM: NUMBER OF ATOMS
7
ITEM: BOX BOUNDS ff ff pp
-6.0000000000000000e+00 6.0000000000000000e+00
-6.0000000000000000e+00 6.0000000000000000e+00
-6.0000000000000000e+00 6.0000000000000000e+00
ITEM: ATOMS id type xs ys zs
1 2 0.500045 0.497933 0.5
2 1 0.583353 0.499987 0.5
3 1 0.544342 0.42635 0.5
4 1 0.563756 0.345303 0.5
5 1 0.532618 0.4226 0.5
6 1 0.542531 0.442172 0.5
7 1 0.549734 0.437425 0.5
ITEM: TIMESTEP
530
ITEM: NUMBER OF ATOMS
7
ITEM: BOX BOUNDS ff ff pp
-6.0000000000000000e+00 6.0000000000000000e+00
-6.0000000000000000e+00 6.0000000000000000e+00
-6.0000000000000000e+00 6.0000000000000000e+00
ITEM: ATOMS id type xs ys zs
1 2 0.500045 0.497933 0.5
2 1 0.583353 0.499987 0.5
3 1 0.544343 0.42635 0.5
4 1 0.563755 0.345303 0.5
5 1 0.532618 0.4226 0.5
6 1 0.542532 0.442172 0.5
7 1 0.549734 0.437425 0.5
ITEM: TIMESTEP
540
ITEM: NUMBER OF ATOMS
7
ITEM: BOX BOUNDS ff ff pp
-6.0000000000000000e+00 6.0000000000000000e+00
-6.0000000000000000e+00 6.0000000000000000e+00
-6.0000000000000000e+00 6.0000000000000000e+00
ITEM: ATOMS id type xs ys zs
1 2 0.500045 0.497933 0.5
2 1 0.583352 0.499988 0.5
3 1 0.544343 0.42635 0.5
4 1 0.563754 0.345302 0.5
5 1 0.532618 0.4226 0.5
6 1 0.542532 0.442172 0.5
7 1 0.549735 0.437425 0.5
ITEM: TIMESTEP
550
ITEM: NUMBER OF ATOMS
7
ITEM: BOX BOUNDS ff ff pp
-6.0000000000000000e+00 6.0000000000000000e+00
-6.0000000000000000e+00 6.0000000000000000e+00
-6.0000000000000000e+00 6.0000000000000000e+00
ITEM: ATOMS id type xs ys zs
1 2 0.500044 0.497933 0.5
2 1 0.583352 0.499988 0.5
3 1 0.544344 0.42635 0.5
4 1 0.563754 0.345302 0.5
5 1 0.532619 0.4226 0.5
6 1 0.542532 0.442172 0.5
7 1 0.549735 0.437425 0.5
ITEM: TIMESTEP
560
ITEM: NUMBER OF ATOMS
7
ITEM: BOX BOUNDS ff ff pp
-6.0000000000000000e+00 6.0000000000000000e+00
-6.0000000000000000e+00 6.0000000000000000e+00
-6.0000000000000000e+00 6.0000000000000000e+00
ITEM: ATOMS id type xs ys zs
1 2 0.500044 0.497932 0.5
2 1 0.583352 0.499989 0.5
3 1 0.544344 0.42635 0.5
4 1 0.563753 0.345302 0.5
5 1 0.532619 0.4226 0.5
6 1 0.542533 0.442172 0.5
7 1 0.549735 0.437425 0.5
ITEM: TIMESTEP
570
ITEM: NUMBER OF ATOMS
7
ITEM: BOX BOUNDS ff ff pp
-6.0000000000000000e+00 6.0000000000000000e+00
-6.0000000000000000e+00 6.0000000000000000e+00
-6.0000000000000000e+00 6.0000000000000000e+00
ITEM: ATOMS id type xs ys zs
1 2 0.500044 0.497932 0.5
2 1 0.583352 0.499989 0.5
3 1 0.544345 0.42635 0.5
4 1 0.563752 0.345301 0.5
5 1 0.532619 0.422601 0.5
6 1 0.542533 0.442171 0.5
7 1 0.549735 0.437425 0.5
ITEM: TIMESTEP
580
ITEM: NUMBER OF ATOMS
7
ITEM: BOX BOUNDS ff ff pp
-6.0000000000000000e+00 6.0000000000000000e+00
-6.0000000000000000e+00 6.0000000000000000e+00
-6.0000000000000000e+00 6.0000000000000000e+00
ITEM: ATOMS id type xs ys zs
1 2 0.500044 0.497932 0.5
2 1 0.583351 0.499989 0.5
3 1 0.544345 0.42635 0.5
4 1 0.563752 0.345301 0.5
5 1 0.532619 0.422601 0.5
6 1 0.542533 0.442171 0.5
7 1 0.549735 0.437425 0.5
ITEM: TIMESTEP
590
ITEM: NUMBER OF ATOMS
7
ITEM: BOX BOUNDS ff ff pp
-6.0000000000000000e+00 6.0000000000000000e+00
-6.0000000000000000e+00 6.0000000000000000e+00
-6.0000000000000000e+00 6.0000000000000000e+00
ITEM: ATOMS id type xs ys zs
1 2 0.500043 0.497932 0.5
2 1 0.583351 0.49999 0.5
3 1 0.544346 0.42635 0.5
4 1 0.563751 0.345301 0.5
5 1 0.532619 0.422601 0.5
6 1 0.542534 0.442171 0.5
7 1 0.549735 0.437426 0.5
ITEM: TIMESTEP
600
ITEM: NUMBER OF ATOMS
7
ITEM: BOX BOUNDS ff ff pp
-6.0000000000000000e+00 6.0000000000000000e+00
-6.0000000000000000e+00 6.0000000000000000e+00
-6.0000000000000000e+00 6.0000000000000000e+00
ITEM: ATOMS id type xs ys zs
1 2 0.500043 0.497932 0.5
2 1 0.583351 0.49999 0.5
3 1 0.544346 0.42635 0.5
4 1 0.563751 0.345301 0.5
5 1 0.532619 0.422601 0.5
6 1 0.542534 0.442171 0.5
7 1 0.549735 0.437426 0.5
ITEM: TIMESTEP
610
ITEM: NUMBER OF ATOMS
7
ITEM: BOX BOUNDS ff ff pp
-6.0000000000000000e+00 6.0000000000000000e+00
-6.0000000000000000e+00 6.0000000000000000e+00
-6.0000000000000000e+00 6.0000000000000000e+00
ITEM: ATOMS id type xs ys zs
1 2 0.500043 0.497932 0.5
2 1 0.583351 0.49999 0.5
3 1 0.544347 0.42635 0.5
4 1 0.56375 0.3453 0.5
5 1 0.53262 0.422601 0.5
6 1 0.542534 0.442171 0.5
7 1 0.549735 0.437426 0.5
ITEM: TIMESTEP
620
ITEM: NUMBER OF ATOMS
7
ITEM: BOX BOUNDS ff ff pp
-6.0000000000000000e+00 6.0000000000000000e+00
-6.0000000000000000e+00 6.0000000000000000e+00
-6.0000000000000000e+00 6.0000000000000000e+00
ITEM: ATOMS id type xs ys zs
1 2 0.500043 0.497931 0.5
2 1 0.58335 0.499991 0.5
3 1 0.544347 0.42635 0.5
4 1 0.56375 0.3453 0.5
5 1 0.53262 0.422601 0.5
6 1 0.542535 0.442171 0.5
7 1 0.549735 0.437426 0.5
ITEM: TIMESTEP
630
ITEM: NUMBER OF ATOMS
7
ITEM: BOX BOUNDS ff ff pp
-6.0000000000000000e+00 6.0000000000000000e+00
-6.0000000000000000e+00 6.0000000000000000e+00
-6.0000000000000000e+00 6.0000000000000000e+00
ITEM: ATOMS id type xs ys zs
1 2 0.500042 0.497931 0.5
2 1 0.58335 0.499991 0.5
3 1 0.544348 0.42635 0.5
4 1 0.563749 0.3453 0.5
5 1 0.53262 0.422601 0.5
6 1 0.542535 0.442171 0.5
7 1 0.549736 0.437426 0.5
ITEM: TIMESTEP
640
ITEM: NUMBER OF ATOMS
7
ITEM: BOX BOUNDS ff ff pp
-6.0000000000000000e+00 6.0000000000000000e+00
-6.0000000000000000e+00 6.0000000000000000e+00
-6.0000000000000000e+00 6.0000000000000000e+00
ITEM: ATOMS id type xs ys zs
1 2 0.500042 0.497931 0.5
2 1 0.58335 0.499991 0.5
3 1 0.544348 0.42635 0.5
4 1 0.563748 0.345299 0.5
5 1 0.53262 0.422601 0.5
6 1 0.542535 0.442171 0.5
7 1 0.549736 0.437426 0.5
ITEM: TIMESTEP
650
ITEM: NUMBER OF ATOMS
7
ITEM: BOX BOUNDS ff ff pp
-6.0000000000000000e+00 6.0000000000000000e+00
-6.0000000000000000e+00 6.0000000000000000e+00
-6.0000000000000000e+00 6.0000000000000000e+00
ITEM: ATOMS id type xs ys zs
1 2 0.500042 0.497931 0.5
2 1 0.58335 0.499992 0.5
3 1 0.544348 0.426349 0.5
4 1 0.563748 0.345299 0.5
5 1 0.53262 0.422601 0.5
6 1 0.542536 0.442171 0.5
7 1 0.549736 0.437426 0.5
ITEM: TIMESTEP
660
ITEM: NUMBER OF ATOMS
7
ITEM: BOX BOUNDS ff ff pp
-6.0000000000000000e+00 6.0000000000000000e+00
-6.0000000000000000e+00 6.0000000000000000e+00
-6.0000000000000000e+00 6.0000000000000000e+00
ITEM: ATOMS id type xs ys zs
1 2 0.500042 0.497931 0.5
2 1 0.583349 0.499992 0.5
3 1 0.544349 0.426349 0.5
4 1 0.563747 0.345299 0.5
5 1 0.532621 0.422601 0.5
6 1 0.542536 0.442171 0.5
7 1 0.549736 0.437427 0.5
ITEM: TIMESTEP
670
ITEM: NUMBER OF ATOMS
7
ITEM: BOX BOUNDS ff ff pp
-6.0000000000000000e+00 6.0000000000000000e+00
-6.0000000000000000e+00 6.0000000000000000e+00
-6.0000000000000000e+00 6.0000000000000000e+00
ITEM: ATOMS id type xs ys zs
1 2 0.500041 0.497931 0.5
2 1 0.583349 0.499993 0.5
3 1 0.54435 0.426349 0.5
4 1 0.563746 0.345298 0.5
5 1 0.532621 0.422601 0.5
6 1 0.542536 0.442171 0.5
7 1 0.549736 0.437427 0.5
ITEM: TIMESTEP
680
ITEM: NUMBER OF ATOMS
7
ITEM: BOX BOUNDS ff ff pp
-6.0000000000000000e+00 6.0000000000000000e+00
-6.0000000000000000e+00 6.0000000000000000e+00
-6.0000000000000000e+00 6.0000000000000000e+00
ITEM: ATOMS id type xs ys zs
1 2 0.500041 0.497931 0.5
2 1 0.583349 0.499993 0.5
3 1 0.54435 0.426349 0.5
4 1 0.563746 0.345298 0.5
5 1 0.532621 0.422601 0.5
6 1 0.542537 0.442171 0.5
7 1 0.549736 0.437427 0.5
ITEM: TIMESTEP
690
ITEM: NUMBER OF ATOMS
7
ITEM: BOX BOUNDS ff ff pp
-6.0000000000000000e+00 6.0000000000000000e+00
-6.0000000000000000e+00 6.0000000000000000e+00
-6.0000000000000000e+00 6.0000000000000000e+00
ITEM: ATOMS id type xs ys zs
1 2 0.500041 0.49793 0.5
2 1 0.583349 0.499993 0.5
3 1 0.54435 0.426349 0.5
4 1 0.563745 0.345298 0.5
5 1 0.532621 0.422601 0.5
6 1 0.542537 0.442171 0.5
7 1 0.549736 0.437427 0.5
ITEM: TIMESTEP
700
ITEM: NUMBER OF ATOMS
7
ITEM: BOX BOUNDS ff ff pp
-6.0000000000000000e+00 6.0000000000000000e+00
-6.0000000000000000e+00 6.0000000000000000e+00
-6.0000000000000000e+00 6.0000000000000000e+00
ITEM: ATOMS id type xs ys zs
1 2 0.50004 0.49793 0.5
2 1 0.583348 0.499994 0.5
3 1 0.544351 0.426349 0.5
4 1 0.563745 0.345298 0.5
5 1 0.532621 0.422601 0.5
6 1 0.542537 0.442171 0.5
7 1 0.549736 0.437427 0.5
ITEM: TIMESTEP
710
ITEM: NUMBER OF ATOMS
7
ITEM: BOX BOUNDS ff ff pp
-6.0000000000000000e+00 6.0000000000000000e+00
-6.0000000000000000e+00 6.0000000000000000e+00
-6.0000000000000000e+00 6.0000000000000000e+00
ITEM: ATOMS id type xs ys zs
1 2 0.50004 0.49793 0.5
2 1 0.583348 0.499994 0.5