ITEM: TIMESTEP
0
ITEM: NUMBER OF ATOMS
7
ITEM: BOX BOUNDS ff ff pp
-6.0000000000000000e+00 6.0000000000000000e+00
-6.0000000000000000e+00 6.0000000000000000e+00
-6.0000000000000000e+00 6.0000000000000000e+00
ITEM: ATOMS id type xs ys zs
1 2 0.456684 0.511306 0.5
2 1 0.512823 0.552931 0.5
3 1 0.524133 0.483903 0.5
4 1 0.574833 0.429455 0.5
5 1 0.514598 0.464331 0.5
6 1 0.514901 0.493562 0.5
7 1 0.521073 0.484123 0.5
ITEM: TIMESTEP
10
ITEM: NUMBER OF ATOMS
7
ITEM: BOX BOUNDS ff ff pp
-6.0000000000000000e+00 6.0000000000000000e+00
-6.0000000000000000e+00 6.0000000000000000e+00
-6.0000000000000000e+00 6.0000000000000000e+00
ITEM: ATOMS id type xs ys zs
1 2 0.446865 0.512887 0.5
2 1 0.515226 0.563575 0.5
3 1 0.526901 0.48032 0.5
4 1 0.584817 0.421133 0.5
5 1 0.512745 0.463769 0.5
6 1 0.513253 0.491512 0.5
7 1 0.519333 0.48625 0.5
ITEM: TIMESTEP
20
ITEM: NUMBER OF ATOMS
7
ITEM: BOX BOUNDS ff ff pp
-6.0000000000000000e+00 6.0000000000000000e+00
-6.0000000000000000e+00 6.0000000000000000e+00
-6.0000000000000000e+00 6.0000000000000000e+00
ITEM: ATOMS id type xs ys zs
1 2 0.445735 0.513483 0.5
2 1 0.513643 0.562129 0.5
3 1 0.527344 0.480167 0.5
4 1 0.584465 0.420103 0.5
5 1 0.513271 0.465328 0.5
6 1 0.515667 0.491278 0.5
7 1 0.518772 0.487384 0.5
ITEM: TIMESTEP
30
ITEM: NUMBER OF ATOMS
7
ITEM: BOX BOUNDS ff ff pp
-6.0000000000000000e+00 6.0000000000000000e+00
-6.0000000000000000e+00 6.0000000000000000e+00
-6.0000000000000000e+00 6.0000000000000000e+00
ITEM: ATOMS id type xs ys zs
1 2 0.445709 0.513275 0.5
2 1 0.513356 0.562141 0.5
3 1 0.527447 0.480115 0.5
4 1 0.584184 0.41992 0.5
5 1 0.513457 0.465573 0.5
6 1 0.515754 0.491364 0.5
7 1 0.518858 0.487719 0.5
ITEM: TIMESTEP
40
ITEM: NUMBER OF ATOMS
7
ITEM: BOX BOUNDS ff ff pp
-6.0000000000000000e+00 6.0000000000000000e+00
-6.0000000000000000e+00 6.0000000000000000e+00
-6.0000000000000000e+00 6.0000000000000000e+00
ITEM: ATOMS id type xs ys zs
1 2 0.44551 0.512752 0.5
2 1 0.512706 0.562197 0.5
3 1 0.527463 0.480225 0.5
4 1 0.583641 0.419352 0.5
5 1 0.513925 0.466278 0.5
6 1 0.515897 0.491493 0.5
7 1 0.519257 0.488455 0.5
ITEM: TIMESTEP
50
ITEM: NUMBER OF ATOMS
7
ITEM: BOX BOUNDS ff ff pp
-6.0000000000000000e+00 6.0000000000000000e+00
-6.0000000000000000e+00 6.0000000000000000e+00
-6.0000000000000000e+00 6.0000000000000000e+00
ITEM: ATOMS id type xs ys zs
1 2 0.445355 0.512245 0.5
2 1 0.512119 0.562228 0.5
3 1 0.527398 0.480322 0.5
4 1 0.583131 0.418873 0.5
5 1 0.514409 0.466998 0.5
6 1 0.515932 0.491582 0.5
7 1 0.519666 0.489186 0.5
ITEM: TIMESTEP
60
ITEM: NUMBER OF ATOMS
7
ITEM: BOX BOUNDS ff ff pp
-6.0000000000000000e+00 6.0000000000000000e+00
-6.0000000000000000e+00 6.0000000000000000e+00
-6.0000000000000000e+00 6.0000000000000000e+00
ITEM: ATOMS id type xs ys zs
1 2 0.445314 0.512081 0.5
2 1 0.511942 0.562238 0.5
3 1 0.527362 0.480337 0.5
4 1 0.582967 0.418741 0.5
5 1 0.514575 0.467235 0.5
6 1 0.515919 0.491604 0.5
7 1 0.519801 0.489429 0.5
ITEM: TIMESTEP
70
ITEM: NUMBER OF ATOMS
7
ITEM: BOX BOUNDS ff ff pp
-6.0000000000000000e+00 6.0000000000000000e+00
-6.0000000000000000e+00 6.0000000000000000e+00
-6.0000000000000000e+00 6.0000000000000000e+00
ITEM: ATOMS id type xs ys zs
1 2 0.445251 0.511768 0.5
2 1 0.511617 0.562246 0.5
3 1 0.527253 0.480371 0.5
4 1 0.582664 0.418504 0.5
5 1 0.5149 0.467703 0.5
6 1 0.515865 0.491636 0.5
7 1 0.520072 0.489892 0.5
ITEM: TIMESTEP
80
ITEM: NUMBER OF ATOMS
7
ITEM: BOX BOUNDS ff ff pp
-6.0000000000000000e+00 6.0000000000000000e+00
-6.0000000000000000e+00 6.0000000000000000e+00
-6.0000000000000000e+00 6.0000000000000000e+00
ITEM: ATOMS id type xs ys zs
1 2 0.445202 0.511395 0.5
2 1 0.511257 0.562251 0.5
3 1 0.527071 0.4804 0.5
4 1 0.582314 0.418267 0.5
5 1 0.515306 0.468274 0.5
6 1 0.515738 0.491656 0.5
7 1 0.520411 0.490446 0.5
ITEM: TIMESTEP
90
ITEM: NUMBER OF ATOMS
7
ITEM: BOX BOUNDS ff ff pp
-6.0000000000000000e+00 6.0000000000000000e+00
-6.0000000000000000e+00 6.0000000000000000e+00
-6.0000000000000000e+00 6.0000000000000000e+00
ITEM: ATOMS id type xs ys zs
1 2 0.445197 0.51133 0.5
2 1 0.511198 0.562251 0.5
3 1 0.527033 0.480406 0.5
4 1 0.582255 0.418231 0.5
5 1 0.515378 0.468376 0.5
6 1 0.515707 0.491657 0.5
7 1 0.520472 0.490542 0.5
ITEM: TIMESTEP
100
ITEM: NUMBER OF ATOMS
7
ITEM: BOX BOUNDS ff ff pp
-6.0000000000000000e+00 6.0000000000000000e+00
-6.0000000000000000e+00 6.0000000000000000e+00
-6.0000000000000000e+00 6.0000000000000000e+00
ITEM: ATOMS id type xs ys zs
1 2 0.445189 0.511185 0.5
2 1 0.511069 0.562252 0.5
3 1 0.526942 0.480415 0.5
4 1 0.582124 0.418156 0.5
5 1 0.515543 0.468603 0.5
6 1 0.515631 0.491658 0.5
7 1 0.52061 0.490757 0.5
ITEM: TIMESTEP
110
ITEM: NUMBER OF ATOMS
7
ITEM: BOX BOUNDS ff ff pp
-6.0000000000000000e+00 6.0000000000000000e+00
-6.0000000000000000e+00 6.0000000000000000e+00
-6.0000000000000000e+00 6.0000000000000000e+00
ITEM: ATOMS id type xs ys zs
1 2 0.445185 0.510982 0.5
2 1 0.510895 0.562253 0.5
3 1 0.526804 0.48043 0.5
4 1 0.581943 0.418066 0.5
5 1 0.515777 0.468927 0.5
6 1 0.515501 0.491652 0.5
7 1 0.520808 0.491059 0.5
ITEM: TIMESTEP
120
ITEM: NUMBER OF ATOMS
7
ITEM: BOX BOUNDS ff ff pp
-6.0000000000000000e+00 6.0000000000000000e+00
-6.0000000000000000e+00 6.0000000000000000e+00
-6.0000000000000000e+00 6.0000000000000000e+00
ITEM: ATOMS id type xs ys zs
1 2 0.445185 0.51092 0.5
2 1 0.510843 0.562253 0.5
3 1 0.526758 0.480436 0.5
4 1 0.581887 0.418041 0.5
5 1 0.515851 0.469028 0.5
6 1 0.515456 0.491649 0.5
7 1 0.52087 0.491152 0.5
ITEM: TIMESTEP
130
ITEM: NUMBER OF ATOMS
7
ITEM: BOX BOUNDS ff ff pp
-6.0000000000000000e+00 6.0000000000000000e+00
-6.0000000000000000e+00 6.0000000000000000e+00
-6.0000000000000000e+00 6.0000000000000000e+00
ITEM: ATOMS id type xs ys zs
1 2 0.445187 0.510864 0.5
2 1 0.510797 0.562254 0.5
3 1 0.526717 0.480441 0.5
4 1 0.581838 0.418021 0.5
5 1 0.515917 0.469119 0.5
6 1 0.515412 0.491646 0.5
7 1 0.520926 0.491235 0.5
ITEM: TIMESTEP
140
ITEM: NUMBER OF ATOMS
7
ITEM: BOX BOUNDS ff ff pp
-6.0000000000000000e+00 6.0000000000000000e+00
-6.0000000000000000e+00 6.0000000000000000e+00
-6.0000000000000000e+00 6.0000000000000000e+00
ITEM: ATOMS id type xs ys zs
1 2 0.445189 0.510795 0.5
2 1 0.51074 0.562254 0.5
3 1 0.526664 0.48045 0.5
4 1 0.581779 0.417998 0.5
5 1 0.515999 0.469231 0.5
6 1 0.515356 0.491641 0.5
7 1 0.520995 0.491337 0.5
ITEM: TIMESTEP
150
ITEM: NUMBER OF ATOMS
7
ITEM: BOX BOUNDS ff ff pp
-6.0000000000000000e+00 6.0000000000000000e+00
-6.0000000000000000e+00 6.0000000000000000e+00
-6.0000000000000000e+00 6.0000000000000000e+00
ITEM: ATOMS id type xs ys zs
1 2 0.445189 0.510774 0.5
2 1 0.510723 0.562255 0.5
3 1 0.526649 0.480451 0.5
4 1 0.58176 0.417992 0.5
5 1 0.516024 0.469265 0.5
6 1 0.515338 0.49164 0.5
7 1 0.521016 0.491368 0.5
ITEM: TIMESTEP
160
ITEM: NUMBER OF ATOMS
7
ITEM: BOX BOUNDS ff ff pp
-6.0000000000000000e+00 6.0000000000000000e+00
-6.0000000000000000e+00 6.0000000000000000e+00
-6.0000000000000000e+00 6.0000000000000000e+00
ITEM: ATOMS id type xs ys zs
1 2 0.44519 0.510754 0.5
2 1 0.510706 0.562256 0.5
3 1 0.526633 0.480455 0.5
4 1 0.581742 0.417987 0.5
5 1 0.516048 0.469299 0.5
6 1 0.51532 0.491638 0.5
7 1 0.521036 0.491399 0.5
ITEM: TIMESTEP
170
ITEM: NUMBER OF ATOMS
7
ITEM: BOX BOUNDS ff ff pp
-6.0000000000000000e+00 6.0000000000000000e+00
-6.0000000000000000e+00 6.0000000000000000e+00
-6.0000000000000000e+00 6.0000000000000000e+00
ITEM: ATOMS id type xs ys zs
1 2 0.44519 0.510742 0.5
2 1 0.510696 0.562257 0.5
3 1 0.526624 0.480456 0.5
4 1 0.581733 0.417984 0.5
5 1 0.516061 0.469318 0.5
6 1 0.51531 0.491638 0.5
7 1 0.521048 0.491416 0.5
ITEM: TIMESTEP
180
ITEM: NUMBER OF ATOMS
7
ITEM: BOX BOUNDS ff ff pp
-6.0000000000000000e+00 6.0000000000000000e+00
-6.0000000000000000e+00 6.0000000000000000e+00
-6.0000000000000000e+00 6.0000000000000000e+00
ITEM: ATOMS id type xs ys zs
1 2 0.445191 0.510727 0.5
2 1 0.510683 0.562257 0.5
3 1 0.526611 0.480459 0.5
4 1 0.58172 0.417979 0.5
5 1 0.51608 0.469345 0.5
6 1 0.515296 0.491636 0.5
7 1 0.521064 0.49144 0.5
ITEM: TIMESTEP
190
ITEM: NUMBER OF ATOMS
7
ITEM: BOX BOUNDS ff ff pp
-6.0000000000000000e+00 6.0000000000000000e+00
-6.0000000000000000e+00 6.0000000000000000e+00
-6.0000000000000000e+00 6.0000000000000000e+00
ITEM: ATOMS id type xs ys zs
1 2 0.445191 0.510723 0.5
2 1 0.51068 0.562257 0.5
3 1 0.526609 0.480459 0.5
4 1 0.581716 0.417978 0.5
5 1 0.516085 0.469351 0.5
6 1 0.515293 0.491636 0.5
7 1 0.521067 0.491446 0.5
ITEM: TIMESTEP
200
ITEM: NUMBER OF ATOMS
7
ITEM: BOX BOUNDS ff ff pp
-6.0000000000000000e+00 6.0000000000000000e+00
-6.0000000000000000e+00 6.0000000000000000e+00
-6.0000000000000000e+00 6.0000000000000000e+00
ITEM: ATOMS id type xs ys zs
1 2 0.445191 0.510715 0.5
2 1 0.510674 0.562258 0.5
3 1 0.526604 0.48046 0.5
4 1 0.581709 0.417976 0.5
5 1 0.516094 0.469363 0.5
6 1 0.515286 0.491635 0.5
7 1 0.521075 0.491457 0.5
ITEM: TIMESTEP
210
ITEM: NUMBER OF ATOMS
7
ITEM: BOX BOUNDS ff ff pp
-6.0000000000000000e+00 6.0000000000000000e+00
-6.0000000000000000e+00 6.0000000000000000e+00
-6.0000000000000000e+00 6.0000000000000000e+00
ITEM: ATOMS id type xs ys zs
1 2 0.445191 0.510706 0.5
2 1 0.510665 0.562258 0.5
3 1 0.526597 0.480462 0.5
4 1 0.581701 0.417973 0.5
5 1 0.516105 0.469379 0.5
6 1 0.515278 0.491635 0.5
7 1 0.521084 0.491471 0.5
ITEM: TIMESTEP
220
ITEM: NUMBER OF ATOMS
7
ITEM: BOX BOUNDS ff ff pp
-6.0000000000000000e+00 6.0000000000000000e+00
-6.0000000000000000e+00 6.0000000000000000e+00
-6.0000000000000000e+00 6.0000000000000000e+00
ITEM: ATOMS id type xs ys zs
1 2 0.445191 0.510704 0.5
2 1 0.510663 0.562258 0.5
3 1 0.526596 0.480463 0.5
4 1 0.581699 0.417972 0.5
5 1 0.516107 0.469382 0.5
6 1 0.515277 0.491635 0.5
7 1 0.521086 0.491474 0.5
ITEM: TIMESTEP
230
ITEM: NUMBER OF ATOMS
7
ITEM: BOX BOUNDS ff ff pp
-6.0000000000000000e+00 6.0000000000000000e+00
-6.0000000000000000e+00 6.0000000000000000e+00
-6.0000000000000000e+00 6.0000000000000000e+00
ITEM: ATOMS id type xs ys zs
1 2 0.445191 0.510701 0.5
2 1 0.510661 0.562259 0.5
3 1 0.526595 0.480463 0.5
4 1 0.581697 0.417971 0.5
5 1 0.51611 0.469386 0.5
6 1 0.515275 0.491635 0.5
7 1 0.521088 0.491477 0.5
ITEM: TIMESTEP
240
ITEM: NUMBER OF ATOMS
7
ITEM: BOX BOUNDS ff ff pp
-6.0000000000000000e+00 6.0000000000000000e+00
-6.0000000000000000e+00 6.0000000000000000e+00
-6.0000000000000000e+00 6.0000000000000000e+00
ITEM: ATOMS id type xs ys zs
1 2 0.445191 0.510698 0.5
2 1 0.510658 0.562259 0.5
3 1 0.526593 0.480465 0.5
4 1 0.581694 0.41797 0.5
5 1 0.516113 0.469391 0.5
6 1 0.515273 0.491636 0.5
7 1 0.52109 0.491482 0.5
ITEM: TIMESTEP
250
ITEM: NUMBER OF ATOMS
7
ITEM: BOX BOUNDS ff ff pp
-6.0000000000000000e+00 6.0000000000000000e+00
-6.0000000000000000e+00 6.0000000000000000e+00
-6.0000000000000000e+00 6.0000000000000000e+00
ITEM: ATOMS id type xs ys zs
1 2 0.44519 0.510696 0.5
2 1 0.510655 0.56226 0.5
3 1 0.526593 0.480466 0.5
4 1 0.581692 0.41797 0.5
5 1 0.516115 0.469394 0.5
6 1 0.515272 0.491636 0.5
7 1 0.521092 0.491485 0.5
ITEM: TIMESTEP
260
ITEM: NUMBER OF ATOMS
7
ITEM: BOX BOUNDS ff ff pp
-6.0000000000000000e+00 6.0000000000000000e+00
-6.0000000000000000e+00 6.0000000000000000e+00
-6.0000000000000000e+00 6.0000000000000000e+00
ITEM: ATOMS id type xs ys zs
1 2 0.44519 0.510695 0.5
2 1 0.510654 0.56226 0.5
3 1 0.526593 0.480467 0.5
4 1 0.581691 0.417969 0.5
5 1 0.516116 0.469395 0.5
6 1 0.515272 0.491636 0.5
7 1 0.521092 0.491486 0.5
ITEM: TIMESTEP
270
ITEM: NUMBER OF ATOMS
7
ITEM: BOX BOUNDS ff ff pp
-6.0000000000000000e+00 6.0000000000000000e+00
-6.0000000000000000e+00 6.0000000000000000e+00
-6.0000000000000000e+00 6.0000000000000000e+00
ITEM: ATOMS id type xs ys zs
1 2 0.44519 0.510694 0.5
2 1 0.510652 0.562261 0.5
3 1 0.526593 0.480468 0.5
4 1 0.58169 0.417969 0.5
5 1 0.516117 0.469397 0.5
6 1 0.515272 0.491637 0.5
7 1 0.521093 0.491488 0.5
ITEM: TIMESTEP
280
ITEM: NUMBER OF ATOMS
7
ITEM: BOX BOUNDS ff ff pp
-6.0000000000000000e+00 6.0000000000000000e+00
-6.0000000000000000e+00 6.0000000000000000e+00
-6.0000000000000000e+00 6.0000000000000000e+00
ITEM: ATOMS id type xs ys zs
1 2 0.445189 0.510693 0.5
2 1 0.51065 0.562261 0.5
3 1 0.526593 0.480468 0.5
4 1 0.581689 0.417968 0.5
5 1 0.516118 0.469398 0.5
6 1 0.515272 0.491637 0.5
7 1 0.521093 0.491489 0.5
ITEM: TIMESTEP
290
ITEM: NUMBER OF ATOMS
7
ITEM: BOX BOUNDS ff ff pp
-6.0000000000000000e+00 6.0000000000000000e+00
-6.0000000000000000e+00 6.0000000000000000e+00
-6.0000000000000000e+00 6.0000000000000000e+00
ITEM: ATOMS id type xs ys zs
1 2 0.445189 0.510692 0.5
2 1 0.510649 0.562261 0.5
3 1 0.526594 0.480469 0.5
4 1 0.581688 0.417968 0.5
5 1 0.516118 0.469399 0.5
6 1 0.515272 0.491638 0.5
7 1 0.521093 0.491489 0.5
ITEM: TIMESTEP
300
ITEM: NUMBER OF ATOMS
7
ITEM: BOX BOUNDS ff ff pp
-6.0000000000000000e+00 6.0000000000000000e+00
-6.0000000000000000e+00 6.0000000000000000e+00
-6.0000000000000000e+00 6.0000000000000000e+00
ITEM: ATOMS id type xs ys zs
1 2 0.445188 0.510692 0.5
2 1 0.510648 0.562262 0.5
3 1 0.526594 0.48047 0.5
4 1 0.581687 0.417967 0.5
5 1 0.516118 0.4694 0.5
6 1 0.515272 0.491638 0.5
7 1 0.521093 0.49149 0.5
ITEM: TIMESTEP
310
ITEM: NUMBER OF ATOMS
7
ITEM: BOX BOUNDS ff ff pp
-6.0000000000000000e+00 6.0000000000000000e+00
-6.0000000000000000e+00 6.0000000000000000e+00
-6.0000000000000000e+00 6.0000000000000000e+00
ITEM: ATOMS id type xs ys zs
1 2 0.445188 0.510691 0.5
2 1 0.510647 0.562262 0.5
3 1 0.526595 0.480471 0.5
4 1 0.581687 0.417967 0.5
5 1 0.516119 0.4694 0.5
6 1 0.515272 0.491639 0.5
7 1 0.521093 0.491491 0.5
ITEM: TIMESTEP
320
ITEM: NUMBER OF ATOMS
7
ITEM: BOX BOUNDS ff ff pp
-6.0000000000000000e+00 6.0000000000000000e+00
-6.0000000000000000e+00 6.0000000000000000e+00
-6.0000000000000000e+00 6.0000000000000000e+00
ITEM: ATOMS id type xs ys zs
1 2 0.445188 0.510691 0.5
2 1 0.510646 0.562263 0.5
3 1 0.526595 0.480471 0.5
4 1 0.581686 0.417967 0.5
5 1 0.516119 0.469401 0.5
6 1 0.515272 0.491639 0.5
7 1 0.521093 0.491491 0.5
ITEM: TIMESTEP
330
ITEM: NUMBER OF ATOMS
7
ITEM: BOX BOUNDS ff ff pp
-6.0000000000000000e+00 6.0000000000000000e+00
-6.0000000000000000e+00 6.0000000000000000e+00
-6.0000000000000000e+00 6.0000000000000000e+00
ITEM: ATOMS id type xs ys zs
1 2 0.445187 0.51069 0.5
2 1 0.510644 0.562263 0.5
3 1 0.526596 0.480472 0.5
4 1 0.581685 0.417967 0.5
5 1 0.516119 0.469401 0.5
6 1 0.515273 0.49164 0.5
7 1 0.521093 0.491492 0.5
ITEM: TIMESTEP
340
ITEM: NUMBER OF ATOMS
7
ITEM: BOX BOUNDS ff ff pp
-6.0000000000000000e+00 6.0000000000000000e+00
-6.0000000000000000e+00 6.0000000000000000e+00
-6.0000000000000000e+00 6.0000000000000000e+00
ITEM: ATOMS id type xs ys zs
1 2 0.445187 0.51069 0.5
2 1 0.510643 0.562264 0.5
3 1 0.526597 0.480473 0.5
4 1 0.581685 0.417966 0.5
5 1 0.516119 0.469402 0.5
6 1 0.515273 0.49164 0.5
7 1 0.521093 0.491492 0.5
ITEM: TIMESTEP
350
ITEM: NUMBER OF ATOMS
7
ITEM: BOX BOUNDS ff ff pp
-6.0000000000000000e+00 6.0000000000000000e+00
-6.0000000000000000e+00 6.0000000000000000e+00
-6.0000000000000000e+00 6.0000000000000000e+00
ITEM: ATOMS id type xs ys zs
1 2 0.445187 0.510689 0.5
2 1 0.510642 0.562264 0.5
3 1 0.526597 0.480474 0.5
4 1 0.581684 0.417966 0.5
5 1 0.516119 0.469402 0.5
6 1 0.515273 0.491641 0.5
7 1 0.521093 0.491493 0.5
ITEM: TIMESTEP
360
ITEM: NUMBER OF ATOMS
7
ITEM: BOX BOUNDS ff ff pp
-6.0000000000000000e+00 6.0000000000000000e+00
-6.0000000000000000e+00 6.0000000000000000e+00
-6.0000000000000000e+00 6.0000000000000000e+00
ITEM: ATOMS id type xs ys zs
1 2 0.445186 0.510689 0.5
2 1 0.510641 0.562265 0.5
3 1 0.526598 0.480475 0.5
4 1 0.581684 0.417966 0.5
5 1 0.516119 0.469403 0.5
6 1 0.515274 0.491642 0.5
7 1 0.521093 0.491493 0.5
ITEM: TIMESTEP
370
ITEM: NUMBER OF ATOMS
7
ITEM: BOX BOUNDS ff ff pp
-6.0000000000000000e+00 6.0000000000000000e+00
-6.0000000000000000e+00 6.0000000000000000e+00
-6.0000000000000000e+00 6.0000000000000000e+00
ITEM: ATOMS id type xs ys zs
1 2 0.445186 0.510688 0.5
2 1 0.51064 0.562265 0.5
3 1 0.526599 0.480476 0.5
4 1 0.581683 0.417965 0.5
5 1 0.516119 0.469403 0.5
6 1 0.515274 0.491642 0.5
7 1 0.521092 0.491494 0.5
ITEM: TIMESTEP
380
ITEM: NUMBER OF ATOMS
7
ITEM: BOX BOUNDS ff ff pp
-6.0000000000000000e+00 6.0000000000000000e+00
-6.0000000000000000e+00 6.0000000000000000e+00
-6.0000000000000000e+00 6.0000000000000000e+00
ITEM: ATOMS id type xs ys zs
1 2 0.445185 0.510688 0.5
2 1 0.510639 0.562266 0.5
3 1 0.526599 0.480476 0.5
4 1 0.581683 0.417965 0.5
5 1 0.516119 0.469403 0.5
6 1 0.515275 0.491643 0.5
7 1 0.521092 0.491494 0.5
ITEM: TIMESTEP
390
ITEM: NUMBER OF ATOMS
7
ITEM: BOX BOUNDS ff ff pp
-6.0000000000000000e+00 6.0000000000000000e+00
-6.0000000000000000e+00 6.0000000000000000e+00
-6.0000000000000000e+00 6.0000000000000000e+00
ITEM: ATOMS id type xs ys zs
1 2 0.445185 0.510688 0.5
2 1 0.510638 0.562266 0.5
3 1 0.5266 0.480477 0.5
4 1 0.581682 0.417965 0.5
5 1 0.516119 0.469403 0.5
6 1 0.515275 0.491643 0.5
7 1 0.521092 0.491494 0.5
ITEM: TIMESTEP
400
ITEM: NUMBER OF ATOMS
7
ITEM: BOX BOUNDS ff ff pp
-6.0000000000000000e+00 6.0000000000000000e+00
-6.0000000000000000e+00 6.0000000000000000e+00
-6.0000000000000000e+00 6.0000000000000000e+00
ITEM: ATOMS id type xs ys zs
1 2 0.445184 0.510687 0.5
2 1 0.510637 0.562267 0.5
3 1 0.526601 0.480478 0.5
4 1 0.581682 0.417965 0.5
5 1 0.516119 0.469404 0.5
6 1 0.515276 0.491644 0.5
7 1 0.521092 0.491495 0.5
ITEM: TIMESTEP
410
ITEM: NUMBER OF ATOMS
7
ITEM: BOX BOUNDS ff ff pp
-6.0000000000000000e+00 6.0000000000000000e+00
-6.0000000000000000e+00 6.0000000000000000e+00
-6.0000000000000000e+00 6.0000000000000000e+00
ITEM: ATOMS id type xs ys zs
1 2 0.445184 0.510687 0.5
2 1 0.510636 0.562267 0.5
3 1 0.526601 0.480479 0.5
4 1 0.581681 0.417964 0.5
5 1 0.516119 0.469404 0.5
6 1 0.515276 0.491644 0.5
7 1 0.521091 0.491495 0.5
ITEM: TIMESTEP
420
ITEM: NUMBER OF ATOMS
7
ITEM: BOX BOUNDS ff ff pp
-6.0000000000000000e+00 6.0000000000000000e+00
-6.0000000000000000e+00 6.0000000000000000e+00
-6.0000000000000000e+00 6.0000000000000000e+00
ITEM: ATOMS id type xs ys zs
1 2 0.445184 0.510687 0.5
2 1 0.510635 0.562267 0.5
3 1 0.526602 0.48048 0.5
4 1 0.581681 0.417964 0.5
5 1 0.516119 0.469404 0.5
6 1 0.515277 0.491645 0.5
7 1 0.521091 0.491495 0.5
ITEM: TIMESTEP
430
ITEM: NUMBER OF ATOMS
7
ITEM: BOX BOUNDS ff ff pp
-6.0000000000000000e+00 6.0000000000000000e+00
-6.0000000000000000e+00 6.0000000000000000e+00
-6.0000000000000000e+00 6.0000000000000000e+00
ITEM: ATOMS id type xs ys zs
1 2 0.445183 0.510686 0.5
2 1 0.510634 0.562268 0.5
3 1 0.526603 0.480481 0.5
4 1 0.58168 0.417964 0.5
5 1 0.516119 0.469405 0.5
6 1 0.515277 0.491646 0.5
7 1 0.521091 0.491496 0.5
ITEM: TIMESTEP
440
ITEM: NUMBER OF ATOMS
7
ITEM: BOX BOUNDS ff ff pp
-6.0000000000000000e+00 6.0000000000000000e+00
-6.0000000000000000e+00 6.0000000000000000e+00
-6.0000000000000000e+00 6.0000000000000000e+00
ITEM: ATOMS id type xs ys zs
1 2 0.445183 0.510686 0.5
2 1 0.510633 0.562268 0.5
3 1 0.526604 0.480481 0.5
4 1 0.58168 0.417964 0.5
5 1 0.516119 0.469405 0.5
6 1 0.515277 0.491646 0.5
7 1 0.521091 0.491496 0.5
ITEM: TIMESTEP
450
ITEM: NUMBER OF ATOMS
7
ITEM: BOX BOUNDS ff ff pp
-6.0000000000000000e+00 6.0000000000000000e+00
-6.0000000000000000e+00 6.0000000000000000e+00
-6.0000000000000000e+00 6.0000000000000000e+00
ITEM: ATOMS id type xs ys zs
1 2 0.445182 0.510686 0.5
2 1 0.510632 0.562269 0.5
3 1 0.526604 0.480482 0.5
4 1 0.581679 0.417963 0.5
5 1 0.516119 0.469405 0.5
6 1 0.515278 0.491647 0.5
7 1 0.52109 0.491496 0.5
ITEM: TIMESTEP
460
ITEM: NUMBER OF ATOMS
7
ITEM: BOX BOUNDS ff ff pp
-6.0000000000000000e+00 6.0000000000000000e+00
-6.0000000000000000e+00 6.0000000000000000e+00
-6.0000000000000000e+00 6.0000000000000000e+00
ITEM: ATOMS id type xs ys zs
1 2 0.445182 0.510685 0.5
2 1 0.510631 0.562269 0.5
3 1 0.526605 0.480483 0.5
4 1 0.581679 0.417963 0.5
5 1 0.516119 0.469406 0.5
6 1 0.515278 0.491647 0.5
7 1 0.52109 0.491497 0.5
ITEM: TIMESTEP
470
ITEM: NUMBER OF ATOMS
7
ITEM: BOX BOUNDS ff ff pp
-6.0000000000000000e+00 6.0000000000000000e+00
-6.0000000000000000e+00 6.0000000000000000e+00
-6.0000000000000000e+00 6.0000000000000000e+00
ITEM: ATOMS id type xs ys zs
1 2 0.445182 0.510685 0.5
2 1 0.51063 0.56227 0.5
3 1 0.526606 0.480484 0.5
4 1 0.581678 0.417963 0.5
5 1 0.516119 0.469406 0.5
6 1 0.515279 0.491648 0.5
7 1 0.52109 0.491497 0.5
ITEM: TIMESTEP
480
ITEM: NUMBER OF ATOMS
7
ITEM: BOX BOUNDS ff ff pp
-6.0000000000000000e+00 6.0000000000000000e+00
-6.0000000000000000e+00 6.0000000000000000e+00
-6.0000000000000000e+00 6.0000000000000000e+00
ITEM: ATOMS id type xs ys zs
1 2 0.445181 0.510685 0.5
2 1 0.510628 0.56227 0.5
3 1 0.526607 0.480485 0.5
4 1 0.581678 0.417962 0.5
5 1 0.516119 0.469406 0.5
6 1 0.515279 0.491648 0.5
7 1 0.52109 0.491497 0.5
ITEM: TIMESTEP
490
ITEM: NUMBER OF ATOMS
7
ITEM: BOX BOUNDS ff ff pp
-6.0000000000000000e+00 6.0000000000000000e+00
-6.0000000000000000e+00 6.0000000000000000e+00
-6.0000000000000000e+00 6.0000000000000000e+00
ITEM: ATOMS id type xs ys zs
1 2 0.445181 0.510684 0.5
2 1 0.510628 0.562271 0.5
3 1 0.526607 0.480485 0.5
4 1 0.581678 0.417962 0.5
5 1 0.516119 0.469406 0.5
6 1 0.51528 0.491649 0.5
7 1 0.52109 0.491498 0.5
ITEM: TIMESTEP
500
ITEM: NUMBER OF ATOMS
7
ITEM: BOX BOUNDS ff ff pp
-6.0000000000000000e+00 6.0000000000000000e+00
-6.0000000000000000e+00 6.0000000000000000e+00
-6.0000000000000000e+00 6.0000000000000000e+00
ITEM: ATOMS id type xs ys zs
1 2 0.44518 0.510684 0.5
2 1 0.510627 0.562271 0.5
3 1 0.526608 0.480486 0.5
4 1 0.581677 0.417962 0.5
5 1 0.516118 0.469407 0.5
6 1 0.51528 0.491649 0.5
7 1 0.521089 0.491498 0.5
ITEM: TIMESTEP
510
ITEM: NUMBER OF ATOMS
7
ITEM: BOX BOUNDS ff ff pp
-6.0000000000000000e+00 6.0000000000000000e+00
-6.0000000000000000e+00 6.0000000000000000e+00
-6.0000000000000000e+00 6.0000000000000000e+00
ITEM: ATOMS id type xs ys zs
1 2 0.44518 0.510684 0.5
2 1 0.510625 0.562272 0.5
3 1 0.526609 0.480487 0.5
4 1 0.581676 0.417962 0.5
5 1 0.516118 0.469407 0.5
6 1 0.515281 0.49165 0.5
7 1 0.521089 0.491498 0.5
ITEM: TIMESTEP
520
ITEM: NUMBER OF ATOMS
7
ITEM: BOX BOUNDS ff ff pp
-6.0000000000000000e+00 6.0000000000000000e+00
-6.0000000000000000e+00 6.0000000000000000e+00
-6.0000000000000000e+00 6.0000000000000000e+00
ITEM: ATOMS id type xs ys zs
1 2 0.44518 0.510683 0.5
2 1 0.510625 0.562272 0.5
3 1 0.526609 0.480487 0.5
4 1 0.581676 0.417961 0.5
5 1 0.516118 0.469407 0.5
6 1 0.515281 0.49165 0.5
7 1 0.521089 0.491498 0.5
ITEM: TIMESTEP
530
ITEM: NUMBER OF ATOMS
7
ITEM: BOX BOUNDS ff ff pp
-6.0000000000000000e+00 6.0000000000000000e+00
-6.0000000000000000e+00 6.0000000000000000e+00
-6.0000000000000000e+00 6.0000000000000000e+00
ITEM: ATOMS id type xs ys zs
1 2 0.445179 0.510683 0.5
2 1 0.510624 0.562272 0.5
3 1 0.52661 0.480488 0.5
4 1 0.581676 0.417961 0.5
5 1 0.516118 0.469407 0.5
6 1 0.515282 0.491651 0.5
7 1 0.521089 0.491499 0.5
ITEM: TIMESTEP
540
ITEM: NUMBER OF ATOMS
7
ITEM: BOX BOUNDS ff ff pp
-6.0000000000000000e+00 6.0000000000000000e+00
-6.0000000000000000e+00 6.0000000000000000e+00
-6.0000000000000000e+00 6.0000000000000000e+00
ITEM: ATOMS id type xs ys zs
1 2 0.445179 0.510683 0.5
2 1 0.510622 0.562273 0.5
3 1 0.526611 0.480489 0.5
4 1 0.581675 0.417961 0.5
5 1 0.516118 0.469408 0.5
6 1 0.515282 0.491652 0.5
7 1 0.521088 0.491499 0.5
ITEM: TIMESTEP
550
ITEM: NUMBER OF ATOMS
7
ITEM: BOX BOUNDS ff ff pp
-6.0000000000000000e+00 6.0000000000000000e+00
-6.0000000000000000e+00 6.0000000000000000e+00
-6.0000000000000000e+00 6.0000000000000000e+00
ITEM: ATOMS id type xs ys zs
1 2 0.445178 0.510682 0.5
2 1 0.510621 0.562273 0.5
3 1 0.526612 0.48049 0.5
4 1 0.581675 0.41796 0.5
5 1 0.516118 0.469408 0.5
6 1 0.515283 0.491652 0.5
7 1 0.521088 0.491499 0.5
ITEM: TIMESTEP
560
ITEM: NUMBER OF ATOMS
7
ITEM: BOX BOUNDS ff ff pp
-6.0000000000000000e+00 6.0000000000000000e+00
-6.0000000000000000e+00 6.0000000000000000e+00
-6.0000000000000000e+00 6.0000000000000000e+00
ITEM: ATOMS id type xs ys zs
1 2 0.445178 0.510682 0.5
2 1 0.510621 0.562274 0.5
3 1 0.526612 0.480491 0.5
4 1 0.581674 0.41796 0.5
5 1 0.516118 0.469408 0.5
6 1 0.515283 0.491653 0.5
7 1 0.521088 0.4915 0.5
ITEM: TIMESTEP
570
ITEM: NUMBER OF ATOMS
7
ITEM: BOX BOUNDS ff ff pp
-6.0000000000000000e+00 6.0000000000000000e+00
-6.0000000000000000e+00 6.0000000000000000e+00
-6.0000000000000000e+00 6.0000000000000000e+00
ITEM: ATOMS id type xs ys zs
1 2 0.445178 0.510681 0.5
2 1 0.510619 0.562274 0.5
3 1 0.526613 0.480492 0.5
4 1 0.581674 0.41796 0.5
5 1 0.516118 0.469408 0.5
6 1 0.515284 0.491653 0.5
7 1 0.521088 0.4915 0.5
ITEM: TIMESTEP
580
ITEM: NUMBER OF ATOMS
7
ITEM: BOX BOUNDS ff ff pp
-6.0000000000000000e+00 6.0000000000000000e+00
-6.0000000000000000e+00 6.0000000000000000e+00
-6.0000000000000000e+00 6.0000000000000000e+00
ITEM: ATOMS id type xs ys zs
1 2 0.445177 0.510681 0.5
2 1 0.510618 0.562275 0.5
3 1 0.526614 0.480492 0.5
4 1 0.581673 0.41796 0.5
5 1 0.516118 0.469409 0.5
6 1 0.515284 0.491654 0.5
7 1 0.521087 0.4915 0.5
ITEM: TIMESTEP
590
ITEM: NUMBER OF ATOMS
7
ITEM: BOX BOUNDS ff ff pp
-6.0000000000000000e+00 6.0000000000000000e+00
-6.0000000000000000e+00 6.0000000000000000e+00
-6.0000000000000000e+00 6.0000000000000000e+00
ITEM: ATOMS id type xs ys zs
1 2 0.445177 0.510681 0.5
2 1 0.510618 0.562275 0.5
3 1 0.526614 0.480493 0.5
4 1 0.581673 0.417959 0.5
5 1 0.516118 0.469409 0.5
6 1 0.515284 0.491654 0.5
7 1 0.521087 0.491501 0.5
ITEM: TIMESTEP
600
ITEM: NUMBER OF ATOMS
7
ITEM: BOX BOUNDS ff ff pp
-6.0000000000000000e+00 6.0000000000000000e+00
-6.0000000000000000e+00 6.0000000000000000e+00
-6.0000000000000000e+00 6.0000000000000000e+00
ITEM: ATOMS id type xs ys zs
1 2 0.445176 0.51068 0.5
2 1 0.510616 0.562276 0.5
3 1 0.526615 0.480494 0.5
4 1 0.581672 0.417959 0.5
5 1 0.516118 0.469409 0.5
6 1 0.515285 0.491655 0.5
7 1 0.521087 0.491501 0.5
ITEM: TIMESTEP
610
ITEM: NUMBER OF ATOMS
7
ITEM: BOX BOUNDS ff ff pp
-6.0000000000000000e+00 6.0000000000000000e+00
-6.0000000000000000e+00 6.0000000000000000e+00
-6.0000000000000000e+00 6.0000000000000000e+00
ITEM: ATOMS id type xs ys zs
1 2 0.445176 0.51068 0.5
2 1 0.510615 0.562276 0.5
3 1 0.526616 0.480495 0.5
4 1 0.581672 0.417959 0.5
5 1 0.516118 0.46941 0.5
6 1 0.515285 0.491655 0.5
7 1 0.521087 0.491501 0.5
ITEM: TIMESTEP
620
ITEM: NUMBER OF ATOMS
7
ITEM: BOX BOUNDS ff ff pp
-6.0000000000000000e+00 6.0000000000000000e+00
-6.0000000000000000e+00 6.0000000000000000e+00
-6.0000000000000000e+00 6.0000000000000000e+00
ITEM: ATOMS id type xs ys zs
1 2 0.445176 0.51068 0.5
2 1 0.510614 0.562276 0.5
3 1 0.526616 0.480495 0.5
4 1 0.581671 0.417959 0.5
5 1 0.516118 0.46941 0.5
6 1 0.515286 0.491656 0.5
7 1 0.521087 0.491502 0.5
ITEM: TIMESTEP
630
ITEM: NUMBER OF ATOMS
7
ITEM: BOX BOUNDS ff ff pp
-6.0000000000000000e+00 6.0000000000000000e+00
-6.0000000000000000e+00 6.0000000000000000e+00
-6.0000000000000000e+00 6.0000000000000000e+00
ITEM: ATOMS id type xs ys zs
1 2 0.445175 0.510679 0.5
2 1 0.510613 0.562277 0.5
3 1 0.526617 0.480496 0.5
4 1 0.581671 0.417958 0.5
5 1 0.516118 0.46941 0.5
6 1 0.515286 0.491656 0.5
7 1 0.521086 0.491502 0.5
ITEM: TIMESTEP
640
ITEM: NUMBER OF ATOMS
7
ITEM: BOX BOUNDS ff ff pp
-6.0000000000000000e+00 6.0000000000000000e+00
-6.0000000000000000e+00 6.0000000000000000e+00
-6.0000000000000000e+00 6.0000000000000000e+00
ITEM: ATOMS id type xs ys zs
1 2 0.445175 0.510679 0.5
2 1 0.510612 0.562277 0.5
3 1 0.526618 0.480497 0.5
4 1 0.58167 0.417958 0.5
5 1 0.516118 0.46941 0.5
6 1 0.515287 0.491657 0.5
7 1 0.521086 0.491502 0.5
ITEM: TIMESTEP
650
ITEM: NUMBER OF ATOMS
7
ITEM: BOX BOUNDS ff ff pp
-6.0000000000000000e+00 6.0000000000000000e+00
-6.0000000000000000e+00 6.0000000000000000e+00
-6.0000000000000000e+00 6.0000000000000000e+00
ITEM: ATOMS id type xs ys zs
1 2 0.445175 0.510679 0.5
2 1 0.510612 0.562278 0.5
3 1 0.526618 0.480498 0.5
4 1 0.58167 0.417958 0.5
5 1 0.516118 0.469411 0.5
6 1 0.515287 0.491657 0.5
7 1 0.521086 0.491502 0.5
ITEM: TIMESTEP
660
ITEM: NUMBER OF ATOMS
7
ITEM: BOX BOUNDS ff ff pp
-6.0000000000000000e+00 6.0000000000000000e+00
-6.0000000000000000e+00 6.0000000000000000e+00
-6.0000000000000000e+00 6.0000000000000000e+00
ITEM: ATOMS id type xs ys zs
1 2 0.445174 0.510678 0.5
2 1 0.51061 0.562278 0.5
3 1 0.526619 0.480499 0.5
4 1 0.581669 0.417957 0.5
5 1 0.516118 0.469411 0.5
6 1 0.515288 0.491658 0.5
7 1 0.521086 0.491503 0.5
ITEM: TIMESTEP
670
ITEM: NUMBER OF ATOMS
7
ITEM: BOX BOUNDS ff ff pp
-6.0000000000000000e+00 6.0000000000000000e+00
-6.0000000000000000e+00 6.0000000000000000e+00
-6.0000000000000000e+00 6.0000000000000000e+00
ITEM: ATOMS id type xs ys zs
1 2 0.445174 0.510678 0.5
2 1 0.510609 0.562279 0.5
3 1 0.52662 0.4805 0.5
4 1 0.581669 0.417957 0.5
5 1 0.516118 0.469411 0.5
6 1 0.515288 0.491659 0.5
7 1 0.521085 0.491503 0.5
ITEM: TIMESTEP
680
ITEM: NUMBER OF ATOMS
7
ITEM: BOX BOUNDS ff ff pp
-6.0000000000000000e+00 6.0000000000000000e+00
-6.0000000000000000e+00 6.0000000000000000e+00
-6.0000000000000000e+00 6.0000000000000000e+00
ITEM: ATOMS id type xs ys zs
1 2 0.445173 0.510678 0.5
2 1 0.510608 0.562279 0.5
3 1 0.526621 0.4805 0.5
4 1 0.581669 0.417957 0.5
5 1 0.516118 0.469411 0.5
6 1 0.515289 0.491659 0.5
7 1 0.521085 0.491503 0.5
ITEM: TIMESTEP
690
ITEM: NUMBER OF ATOMS
7
ITEM: BOX BOUNDS ff ff pp
-6.0000000000000000e+00 6.0000000000000000e+00
-6.0000000000000000e+00 6.0000000000000000e+00
-6.0000000000000000e+00 6.0000000000000000e+00
ITEM: ATOMS id type xs ys zs
1 2 0.445173 0.510677 0.5
2 1 0.510607 0.562279 0.5
3 1 0.526621 0.480501 0.5
4 1 0.581668 0.417957 0.5
5 1 0.516118 0.469412 0.5
6 1 0.515289 0.49166 0.5
7 1 0.521085 0.491504 0.5
ITEM: TIMESTEP
700
ITEM: NUMBER OF ATOMS
7
ITEM: BOX BOUNDS ff ff pp
-6.0000000000000000e+00 6.0000000000000000e+00
-6.0000000000000000e+00 6.0000000000000000e+00
-6.0000000000000000e+00 6.0000000000000000e+00
ITEM: ATOMS id type xs ys zs
1 2 0.445172 0.510677 0.5
2 1 0.510606 0.56228 0.5
3 1 0.526622 0.480502 0.5
4 1 0.581667 0.417956 0.5
5 1 0.516118 0.469412 0.5
6 1 0.51529 0.49166 0.5
7 1 0.521085 0.491504 0.5
ITEM: TIMESTEP
710
ITEM: NUMBER OF ATOMS
7
ITEM: BOX BOUNDS ff ff pp
-6.0000000000000000e+00 6.0000000000000000e+00
-6.0000000000000000e+00 6.0000000000000000e+00
-6.0000000000000000e+00 6.0000000000000000e+00