ITEM: TIMESTEP
0
ITEM: NUMBER OF ATOMS
7
ITEM: BOX BOUNDS ff ff pp
-6.0000000000000000e+00 6.0000000000000000e+00
-6.0000000000000000e+00 6.0000000000000000e+00
-6.0000000000000000e+00 6.0000000000000000e+00
ITEM: ATOMS id type xs ys zs
1 2 0.435026 0.516959 0.5
2 1 0.477568 0.579397 0.5
3 1 0.513555 0.512926 0.5
4 1 0.579933 0.471782 0.5
5 1 0.505839 0.485733 0.5
6 1 0.50071 0.519518 0.5
7 1 0.507746 0.507218 0.5
ITEM: TIMESTEP
10
ITEM: NUMBER OF ATOMS
7
ITEM: BOX BOUNDS ff ff pp
-6.0000000000000000e+00 6.0000000000000000e+00
-6.0000000000000000e+00 6.0000000000000000e+00
-6.0000000000000000e+00 6.0000000000000000e+00
ITEM: ATOMS id type xs ys zs
1 2 0.429845 0.516217 0.5
2 1 0.47714 0.586046 0.5
3 1 0.515972 0.512799 0.5
4 1 0.586653 0.468281 0.5
5 1 0.504978 0.483815 0.5
6 1 0.499981 0.517974 0.5
7 1 0.50748 0.505458 0.5
ITEM: TIMESTEP
20
ITEM: NUMBER OF ATOMS
7
ITEM: BOX BOUNDS ff ff pp
-6.0000000000000000e+00 6.0000000000000000e+00
-6.0000000000000000e+00 6.0000000000000000e+00
-6.0000000000000000e+00 6.0000000000000000e+00
ITEM: ATOMS id type xs ys zs
1 2 0.429627 0.516619 0.5
2 1 0.476558 0.585554 0.5
3 1 0.516458 0.512607 0.5
4 1 0.586696 0.467986 0.5
5 1 0.504508 0.482632 0.5
6 1 0.50177 0.519201 0.5
7 1 0.506952 0.505071 0.5
ITEM: TIMESTEP
30
ITEM: NUMBER OF ATOMS
7
ITEM: BOX BOUNDS ff ff pp
-6.0000000000000000e+00 6.0000000000000000e+00
-6.0000000000000000e+00 6.0000000000000000e+00
-6.0000000000000000e+00 6.0000000000000000e+00
ITEM: ATOMS id type xs ys zs
1 2 0.429669 0.516586 0.5
2 1 0.476477 0.585555 0.5
3 1 0.51646 0.51265 0.5
4 1 0.586644 0.467891 0.5
5 1 0.504494 0.482552 0.5
6 1 0.501892 0.51936 0.5
7 1 0.506982 0.504989 0.5
ITEM: TIMESTEP
40
ITEM: NUMBER OF ATOMS
7
ITEM: BOX BOUNDS ff ff pp
-6.0000000000000000e+00 6.0000000000000000e+00
-6.0000000000000000e+00 6.0000000000000000e+00
-6.0000000000000000e+00 6.0000000000000000e+00
ITEM: ATOMS id type xs ys zs
1 2 0.42974 0.516505 0.5
2 1 0.476327 0.585613 0.5
3 1 0.516489 0.512702 0.5
4 1 0.586553 0.467676 0.5
5 1 0.504462 0.482384 0.5
6 1 0.502087 0.519624 0.5
7 1 0.507098 0.504836 0.5
ITEM: TIMESTEP
50
ITEM: NUMBER OF ATOMS
7
ITEM: BOX BOUNDS ff ff pp
-6.0000000000000000e+00 6.0000000000000000e+00
-6.0000000000000000e+00 6.0000000000000000e+00
-6.0000000000000000e+00 6.0000000000000000e+00
ITEM: ATOMS id type xs ys zs
1 2 0.429797 0.516453 0.5
2 1 0.476261 0.585637 0.5
3 1 0.516515 0.51272 0.5
4 1 0.586496 0.467515 0.5
5 1 0.504449 0.482269 0.5
6 1 0.502204 0.519757 0.5
7 1 0.507181 0.50473 0.5
ITEM: TIMESTEP
60
ITEM: NUMBER OF ATOMS
7
ITEM: BOX BOUNDS ff ff pp
-6.0000000000000000e+00 6.0000000000000000e+00
-6.0000000000000000e+00 6.0000000000000000e+00
-6.0000000000000000e+00 6.0000000000000000e+00
ITEM: ATOMS id type xs ys zs
1 2 0.429812 0.516441 0.5
2 1 0.476254 0.585638 0.5
3 1 0.516523 0.512719 0.5
4 1 0.586484 0.467472 0.5
5 1 0.504447 0.482241 0.5
6 1 0.502232 0.51978 0.5
7 1 0.507201 0.504703 0.5
ITEM: TIMESTEP
70
ITEM: NUMBER OF ATOMS
7
ITEM: BOX BOUNDS ff ff pp
-6.0000000000000000e+00 6.0000000000000000e+00
-6.0000000000000000e+00 6.0000000000000000e+00
-6.0000000000000000e+00 6.0000000000000000e+00
ITEM: ATOMS id type xs ys zs
1 2 0.429838 0.516423 0.5
2 1 0.476253 0.585636 0.5
3 1 0.516539 0.512707 0.5
4 1 0.586467 0.467396 0.5
5 1 0.504446 0.482192 0.5
6 1 0.502278 0.519807 0.5
7 1 0.507233 0.504657 0.5
ITEM: TIMESTEP
80
ITEM: NUMBER OF ATOMS
7
ITEM: BOX BOUNDS ff ff pp
-6.0000000000000000e+00 6.0000000000000000e+00
-6.0000000000000000e+00 6.0000000000000000e+00
-6.0000000000000000e+00 6.0000000000000000e+00
ITEM: ATOMS id type xs ys zs
1 2 0.429864 0.516408 0.5
2 1 0.476272 0.585624 0.5
3 1 0.516558 0.512683 0.5
4 1 0.586455 0.467314 0.5
5 1 0.504448 0.482144 0.5
6 1 0.50232 0.519813 0.5
7 1 0.507262 0.504609 0.5
ITEM: TIMESTEP
90
ITEM: NUMBER OF ATOMS
7
ITEM: BOX BOUNDS ff ff pp
-6.0000000000000000e+00 6.0000000000000000e+00
-6.0000000000000000e+00 6.0000000000000000e+00
-6.0000000000000000e+00 6.0000000000000000e+00
ITEM: ATOMS id type xs ys zs
1 2 0.429868 0.516406 0.5
2 1 0.476277 0.585621 0.5
3 1 0.516561 0.512678 0.5
4 1 0.586454 0.4673 0.5
5 1 0.504449 0.482136 0.5
6 1 0.502326 0.519812 0.5
7 1 0.507266 0.504602 0.5
ITEM: TIMESTEP
100
ITEM: NUMBER OF ATOMS
7
ITEM: BOX BOUNDS ff ff pp
-6.0000000000000000e+00 6.0000000000000000e+00
-6.0000000000000000e+00 6.0000000000000000e+00
-6.0000000000000000e+00 6.0000000000000000e+00
ITEM: ATOMS id type xs ys zs
1 2 0.429878 0.516401 0.5
2 1 0.476291 0.585614 0.5
3 1 0.516569 0.512665 0.5
4 1 0.586452 0.467269 0.5
5 1 0.504451 0.48212 0.5
6 1 0.50234 0.519806 0.5
7 1 0.507275 0.504585 0.5
ITEM: TIMESTEP
110
ITEM: NUMBER OF ATOMS
7
ITEM: BOX BOUNDS ff ff pp
-6.0000000000000000e+00 6.0000000000000000e+00
-6.0000000000000000e+00 6.0000000000000000e+00
-6.0000000000000000e+00 6.0000000000000000e+00
ITEM: ATOMS id type xs ys zs
1 2 0.429891 0.516396 0.5
2 1 0.476314 0.585602 0.5
3 1 0.516581 0.512644 0.5
4 1 0.586451 0.467226 0.5
5 1 0.504454 0.482097 0.5
6 1 0.502357 0.519794 0.5
7 1 0.507287 0.504562 0.5
ITEM: TIMESTEP
120
ITEM: NUMBER OF ATOMS
7
ITEM: BOX BOUNDS ff ff pp
-6.0000000000000000e+00 6.0000000000000000e+00
-6.0000000000000000e+00 6.0000000000000000e+00
-6.0000000000000000e+00 6.0000000000000000e+00
ITEM: ATOMS id type xs ys zs
1 2 0.429895 0.516395 0.5
2 1 0.476322 0.585598 0.5
3 1 0.516585 0.512637 0.5
4 1 0.58645 0.467212 0.5
5 1 0.504455 0.48209 0.5
6 1 0.502362 0.519789 0.5
7 1 0.50729 0.504555 0.5
ITEM: TIMESTEP
130
ITEM: NUMBER OF ATOMS
7
ITEM: BOX BOUNDS ff ff pp
-6.0000000000000000e+00 6.0000000000000000e+00
-6.0000000000000000e+00 6.0000000000000000e+00
-6.0000000000000000e+00 6.0000000000000000e+00
ITEM: ATOMS id type xs ys zs
1 2 0.429899 0.516394 0.5
2 1 0.476329 0.585594 0.5
3 1 0.516588 0.512631 0.5
4 1 0.58645 0.4672 0.5
5 1 0.504457 0.482084 0.5
6 1 0.502367 0.519784 0.5
7 1 0.507293 0.504549 0.5
ITEM: TIMESTEP
140
ITEM: NUMBER OF ATOMS
7
ITEM: BOX BOUNDS ff ff pp
-6.0000000000000000e+00 6.0000000000000000e+00
-6.0000000000000000e+00 6.0000000000000000e+00
-6.0000000000000000e+00 6.0000000000000000e+00
ITEM: ATOMS id type xs ys zs
1 2 0.429903 0.516392 0.5
2 1 0.476339 0.585589 0.5
3 1 0.516593 0.512622 0.5
4 1 0.58645 0.467185 0.5
5 1 0.504458 0.482076 0.5
6 1 0.502372 0.519777 0.5
7 1 0.507297 0.504541 0.5
ITEM: TIMESTEP
150
ITEM: NUMBER OF ATOMS
7
ITEM: BOX BOUNDS ff ff pp
-6.0000000000000000e+00 6.0000000000000000e+00
-6.0000000000000000e+00 6.0000000000000000e+00
-6.0000000000000000e+00 6.0000000000000000e+00
ITEM: ATOMS id type xs ys zs
1 2 0.429905 0.516392 0.5
2 1 0.476342 0.585587 0.5
3 1 0.516594 0.51262 0.5
4 1 0.58645 0.46718 0.5
5 1 0.504459 0.482074 0.5
6 1 0.502374 0.519775 0.5
7 1 0.507298 0.504538 0.5
ITEM: TIMESTEP
160
ITEM: NUMBER OF ATOMS
7
ITEM: BOX BOUNDS ff ff pp
-6.0000000000000000e+00 6.0000000000000000e+00
-6.0000000000000000e+00 6.0000000000000000e+00
-6.0000000000000000e+00 6.0000000000000000e+00
ITEM: ATOMS id type xs ys zs
1 2 0.429906 0.516391 0.5
2 1 0.476345 0.585586 0.5
3 1 0.516596 0.512617 0.5
4 1 0.58645 0.467175 0.5
5 1 0.504459 0.482071 0.5
6 1 0.502375 0.519773 0.5
7 1 0.507299 0.504536 0.5
ITEM: TIMESTEP
170
ITEM: NUMBER OF ATOMS
7
ITEM: BOX BOUNDS ff ff pp
-6.0000000000000000e+00 6.0000000000000000e+00
-6.0000000000000000e+00 6.0000000000000000e+00
-6.0000000000000000e+00 6.0000000000000000e+00
ITEM: ATOMS id type xs ys zs
1 2 0.429907 0.516391 0.5
2 1 0.476347 0.585585 0.5
3 1 0.516596 0.512616 0.5
4 1 0.58645 0.467173 0.5
5 1 0.504459 0.48207 0.5
6 1 0.502376 0.519772 0.5
7 1 0.5073 0.504535 0.5
ITEM: TIMESTEP
180
ITEM: NUMBER OF ATOMS
7
ITEM: BOX BOUNDS ff ff pp
-6.0000000000000000e+00 6.0000000000000000e+00
-6.0000000000000000e+00 6.0000000000000000e+00
-6.0000000000000000e+00 6.0000000000000000e+00
ITEM: ATOMS id type xs ys zs
1 2 0.429908 0.516391 0.5
2 1 0.47635 0.585583 0.5
3 1 0.516597 0.512614 0.5
4 1 0.58645 0.467169 0.5
5 1 0.50446 0.482068 0.5
6 1 0.502378 0.51977 0.5
7 1 0.507301 0.504533 0.5
ITEM: TIMESTEP
190
ITEM: NUMBER OF ATOMS
7
ITEM: BOX BOUNDS ff ff pp
-6.0000000000000000e+00 6.0000000000000000e+00
-6.0000000000000000e+00 6.0000000000000000e+00
-6.0000000000000000e+00 6.0000000000000000e+00
ITEM: ATOMS id type xs ys zs
1 2 0.429908 0.516391 0.5
2 1 0.47635 0.585583 0.5
3 1 0.516598 0.512613 0.5
4 1 0.58645 0.467168 0.5
5 1 0.50446 0.482068 0.5
6 1 0.502378 0.51977 0.5
7 1 0.507301 0.504532 0.5
ITEM: TIMESTEP
200
ITEM: NUMBER OF ATOMS
7
ITEM: BOX BOUNDS ff ff pp
-6.0000000000000000e+00 6.0000000000000000e+00
-6.0000000000000000e+00 6.0000000000000000e+00
-6.0000000000000000e+00 6.0000000000000000e+00
ITEM: ATOMS id type xs ys zs
1 2 0.429909 0.516391 0.5
2 1 0.476352 0.585582 0.5
3 1 0.516598 0.512612 0.5
4 1 0.58645 0.467166 0.5
5 1 0.50446 0.482067 0.5
6 1 0.502379 0.519769 0.5
7 1 0.507302 0.504531 0.5
ITEM: TIMESTEP
210
ITEM: NUMBER OF ATOMS
7
ITEM: BOX BOUNDS ff ff pp
-6.0000000000000000e+00 6.0000000000000000e+00
-6.0000000000000000e+00 6.0000000000000000e+00
-6.0000000000000000e+00 6.0000000000000000e+00
ITEM: ATOMS id type xs ys zs
1 2 0.42991 0.51639 0.5
2 1 0.476353 0.585582 0.5
3 1 0.516599 0.512611 0.5
4 1 0.586451 0.467164 0.5
5 1 0.50446 0.482065 0.5
6 1 0.502379 0.519768 0.5
7 1 0.507302 0.50453 0.5
ITEM: TIMESTEP
220
ITEM: NUMBER OF ATOMS
7
ITEM: BOX BOUNDS ff ff pp
-6.0000000000000000e+00 6.0000000000000000e+00
-6.0000000000000000e+00 6.0000000000000000e+00
-6.0000000000000000e+00 6.0000000000000000e+00
ITEM: ATOMS id type xs ys zs
1 2 0.42991 0.51639 0.5
2 1 0.476354 0.585581 0.5
3 1 0.516599 0.51261 0.5
4 1 0.586451 0.467164 0.5
5 1 0.50446 0.482065 0.5
6 1 0.502379 0.519767 0.5
7 1 0.507302 0.50453 0.5
ITEM: TIMESTEP
230
ITEM: NUMBER OF ATOMS
7
ITEM: BOX BOUNDS ff ff pp
-6.0000000000000000e+00 6.0000000000000000e+00
-6.0000000000000000e+00 6.0000000000000000e+00
-6.0000000000000000e+00 6.0000000000000000e+00
ITEM: ATOMS id type xs ys zs
1 2 0.42991 0.51639 0.5
2 1 0.476354 0.585581 0.5
3 1 0.516599 0.51261 0.5
4 1 0.586451 0.467163 0.5
5 1 0.50446 0.482065 0.5
6 1 0.50238 0.519767 0.5
7 1 0.507303 0.504529 0.5
ITEM: TIMESTEP
240
ITEM: NUMBER OF ATOMS
7
ITEM: BOX BOUNDS ff ff pp
-6.0000000000000000e+00 6.0000000000000000e+00
-6.0000000000000000e+00 6.0000000000000000e+00
-6.0000000000000000e+00 6.0000000000000000e+00
ITEM: ATOMS id type xs ys zs
1 2 0.42991 0.51639 0.5
2 1 0.476355 0.585581 0.5
3 1 0.516599 0.51261 0.5
4 1 0.586451 0.467162 0.5
5 1 0.50446 0.482064 0.5
6 1 0.50238 0.519767 0.5
7 1 0.507303 0.504529 0.5
ITEM: TIMESTEP
250
ITEM: NUMBER OF ATOMS
7
ITEM: BOX BOUNDS ff ff pp
-6.0000000000000000e+00 6.0000000000000000e+00
-6.0000000000000000e+00 6.0000000000000000e+00
-6.0000000000000000e+00 6.0000000000000000e+00
ITEM: ATOMS id type xs ys zs
1 2 0.42991 0.51639 0.5
2 1 0.476355 0.585581 0.5
3 1 0.516599 0.512609 0.5
4 1 0.586451 0.467162 0.5
5 1 0.504461 0.482064 0.5
6 1 0.50238 0.519766 0.5
7 1 0.507303 0.504528 0.5
ITEM: TIMESTEP
260
ITEM: NUMBER OF ATOMS
7
ITEM: BOX BOUNDS ff ff pp
-6.0000000000000000e+00 6.0000000000000000e+00
-6.0000000000000000e+00 6.0000000000000000e+00
-6.0000000000000000e+00 6.0000000000000000e+00
ITEM: ATOMS id type xs ys zs
1 2 0.429911 0.51639 0.5
2 1 0.476355 0.585581 0.5
3 1 0.516599 0.512609 0.5
4 1 0.586451 0.467162 0.5
5 1 0.504461 0.482064 0.5
6 1 0.50238 0.519766 0.5
7 1 0.507303 0.504528 0.5
ITEM: TIMESTEP
270
ITEM: NUMBER OF ATOMS
7
ITEM: BOX BOUNDS ff ff pp
-6.0000000000000000e+00 6.0000000000000000e+00
-6.0000000000000000e+00 6.0000000000000000e+00
-6.0000000000000000e+00 6.0000000000000000e+00
ITEM: ATOMS id type xs ys zs
1 2 0.429911 0.51639 0.5
2 1 0.476356 0.585581 0.5
3 1 0.516599 0.512609 0.5
4 1 0.586451 0.467161 0.5
5 1 0.504461 0.482064 0.5
6 1 0.50238 0.519766 0.5
7 1 0.507303 0.504528 0.5
ITEM: TIMESTEP
280
ITEM: NUMBER OF ATOMS
7
ITEM: BOX BOUNDS ff ff pp
-6.0000000000000000e+00 6.0000000000000000e+00
-6.0000000000000000e+00 6.0000000000000000e+00
-6.0000000000000000e+00 6.0000000000000000e+00
ITEM: ATOMS id type xs ys zs
1 2 0.429911 0.51639 0.5
2 1 0.476356 0.585581 0.5
3 1 0.516599 0.512609 0.5
4 1 0.586451 0.467161 0.5
5 1 0.504461 0.482063 0.5
6 1 0.50238 0.519766 0.5
7 1 0.507303 0.504528 0.5
ITEM: TIMESTEP
290
ITEM: NUMBER OF ATOMS
7
ITEM: BOX BOUNDS ff ff pp
-6.0000000000000000e+00 6.0000000000000000e+00
-6.0000000000000000e+00 6.0000000000000000e+00
-6.0000000000000000e+00 6.0000000000000000e+00
ITEM: ATOMS id type xs ys zs
1 2 0.429911 0.51639 0.5
2 1 0.476356 0.585581 0.5
3 1 0.516599 0.512609 0.5
4 1 0.586451 0.467161 0.5
5 1 0.504461 0.482063 0.5
6 1 0.50238 0.519766 0.5
7 1 0.507303 0.504528 0.5
ITEM: TIMESTEP
300
ITEM: NUMBER OF ATOMS
7
ITEM: BOX BOUNDS ff ff pp
-6.0000000000000000e+00 6.0000000000000000e+00
-6.0000000000000000e+00 6.0000000000000000e+00
-6.0000000000000000e+00 6.0000000000000000e+00
ITEM: ATOMS id type xs ys zs
1 2 0.429911 0.51639 0.5
2 1 0.476356 0.585581 0.5
3 1 0.516599 0.512608 0.5
4 1 0.586451 0.467161 0.5
5 1 0.504461 0.482063 0.5
6 1 0.50238 0.519766 0.5
7 1 0.507303 0.504528 0.5
ITEM: TIMESTEP
310
ITEM: NUMBER OF ATOMS
7
ITEM: BOX BOUNDS ff ff pp
-6.0000000000000000e+00 6.0000000000000000e+00
-6.0000000000000000e+00 6.0000000000000000e+00
-6.0000000000000000e+00 6.0000000000000000e+00
ITEM: ATOMS id type xs ys zs
1 2 0.429911 0.51639 0.5
2 1 0.476356 0.585581 0.5
3 1 0.516599 0.512608 0.5
4 1 0.586451 0.467161 0.5
5 1 0.504461 0.482063 0.5
6 1 0.50238 0.519766 0.5
7 1 0.507303 0.504527 0.5
ITEM: TIMESTEP
320
ITEM: NUMBER OF ATOMS
7
ITEM: BOX BOUNDS ff ff pp
-6.0000000000000000e+00 6.0000000000000000e+00
-6.0000000000000000e+00 6.0000000000000000e+00
-6.0000000000000000e+00 6.0000000000000000e+00
ITEM: ATOMS id type xs ys zs
1 2 0.429911 0.51639 0.5
2 1 0.476356 0.585581 0.5
3 1 0.516599 0.512608 0.5
4 1 0.586451 0.467161 0.5
5 1 0.504461 0.482063 0.5
6 1 0.50238 0.519766 0.5
7 1 0.507303 0.504527 0.5
ITEM: TIMESTEP
330
ITEM: NUMBER OF ATOMS
7
ITEM: BOX BOUNDS ff ff pp
-6.0000000000000000e+00 6.0000000000000000e+00
-6.0000000000000000e+00 6.0000000000000000e+00
-6.0000000000000000e+00 6.0000000000000000e+00
ITEM: ATOMS id type xs ys zs
1 2 0.429911 0.51639 0.5
2 1 0.476356 0.585581 0.5
3 1 0.5166 0.512608 0.5
4 1 0.586451 0.467161 0.5
5 1 0.504461 0.482063 0.5
6 1 0.50238 0.519766 0.5
7 1 0.507303 0.504527 0.5
ITEM: TIMESTEP
340
ITEM: NUMBER OF ATOMS
7
ITEM: BOX BOUNDS ff ff pp
-6.0000000000000000e+00 6.0000000000000000e+00
-6.0000000000000000e+00 6.0000000000000000e+00
-6.0000000000000000e+00 6.0000000000000000e+00
ITEM: ATOMS id type xs ys zs
1 2 0.429911 0.51639 0.5
2 1 0.476357 0.585581 0.5
3 1 0.5166 0.512608 0.5
4 1 0.586451 0.467161 0.5
5 1 0.504461 0.482063 0.5
6 1 0.50238 0.519766 0.5
7 1 0.507303 0.504527 0.5
ITEM: TIMESTEP
350
ITEM: NUMBER OF ATOMS
7
ITEM: BOX BOUNDS ff ff pp
-6.0000000000000000e+00 6.0000000000000000e+00
-6.0000000000000000e+00 6.0000000000000000e+00
-6.0000000000000000e+00 6.0000000000000000e+00
ITEM: ATOMS id type xs ys zs
1 2 0.429911 0.51639 0.5
2 1 0.476357 0.585581 0.5
3 1 0.5166 0.512608 0.5
4 1 0.586451 0.467161 0.5
5 1 0.504461 0.482063 0.5
6 1 0.50238 0.519766 0.5
7 1 0.507303 0.504527 0.5
ITEM: TIMESTEP
360
ITEM: NUMBER OF ATOMS
7
ITEM: BOX BOUNDS ff ff pp
-6.0000000000000000e+00 6.0000000000000000e+00
-6.0000000000000000e+00 6.0000000000000000e+00
-6.0000000000000000e+00 6.0000000000000000e+00
ITEM: ATOMS id type xs ys zs
1 2 0.429911 0.51639 0.5
2 1 0.476357 0.585581 0.5
3 1 0.5166 0.512608 0.5
4 1 0.586451 0.467161 0.5
5 1 0.504461 0.482062 0.5
6 1 0.50238 0.519766 0.5
7 1 0.507303 0.504527 0.5
ITEM: TIMESTEP
370
ITEM: NUMBER OF ATOMS
7
ITEM: BOX BOUNDS ff ff pp
-6.0000000000000000e+00 6.0000000000000000e+00
-6.0000000000000000e+00 6.0000000000000000e+00
-6.0000000000000000e+00 6.0000000000000000e+00
ITEM: ATOMS id type xs ys zs
1 2 0.429911 0.51639 0.5
2 1 0.476357 0.585581 0.5
3 1 0.5166 0.512608 0.5
4 1 0.586451 0.467161 0.5
5 1 0.504461 0.482062 0.5
6 1 0.50238 0.519765 0.5
7 1 0.507304 0.504527 0.5
ITEM: TIMESTEP
380
ITEM: NUMBER OF ATOMS
7
ITEM: BOX BOUNDS ff ff pp
-6.0000000000000000e+00 6.0000000000000000e+00
-6.0000000000000000e+00 6.0000000000000000e+00
-6.0000000000000000e+00 6.0000000000000000e+00
ITEM: ATOMS id type xs ys zs
1 2 0.429911 0.51639 0.5
2 1 0.476357 0.585581 0.5
3 1 0.5166 0.512608 0.5
4 1 0.586451 0.467161 0.5
5 1 0.504461 0.482062 0.5
6 1 0.50238 0.519765 0.5
7 1 0.507304 0.504527 0.5
ITEM: TIMESTEP
390
ITEM: NUMBER OF ATOMS
7
ITEM: BOX BOUNDS ff ff pp
-6.0000000000000000e+00 6.0000000000000000e+00
-6.0000000000000000e+00 6.0000000000000000e+00
-6.0000000000000000e+00 6.0000000000000000e+00
ITEM: ATOMS id type xs ys zs
1 2 0.429912 0.51639 0.5
2 1 0.476357 0.585581 0.5
3 1 0.5166 0.512608 0.5
4 1 0.586451 0.46716 0.5
5 1 0.504461 0.482062 0.5
6 1 0.50238 0.519765 0.5
7 1 0.507304 0.504526 0.5
ITEM: TIMESTEP
400
ITEM: NUMBER OF ATOMS
7
ITEM: BOX BOUNDS ff ff pp
-6.0000000000000000e+00 6.0000000000000000e+00
-6.0000000000000000e+00 6.0000000000000000e+00
-6.0000000000000000e+00 6.0000000000000000e+00
ITEM: ATOMS id type xs ys zs
1 2 0.429912 0.516391 0.5
2 1 0.476357 0.58558 0.5
3 1 0.5166 0.512608 0.5
4 1 0.586451 0.46716 0.5
5 1 0.504461 0.482062 0.5
6 1 0.50238 0.519765 0.5
7 1 0.507304 0.504526 0.5
ITEM: TIMESTEP
410
ITEM: NUMBER OF ATOMS
7
ITEM: BOX BOUNDS ff ff pp
-6.0000000000000000e+00 6.0000000000000000e+00
-6.0000000000000000e+00 6.0000000000000000e+00
-6.0000000000000000e+00 6.0000000000000000e+00
ITEM: ATOMS id type xs ys zs
1 2 0.429912 0.516391 0.5
2 1 0.476357 0.58558 0.5
3 1 0.5166 0.512608 0.5
4 1 0.586451 0.46716 0.5
5 1 0.504461 0.482062 0.5
6 1 0.50238 0.519765 0.5
7 1 0.507304 0.504526 0.5
ITEM: TIMESTEP
420
ITEM: NUMBER OF ATOMS
7
ITEM: BOX BOUNDS ff ff pp
-6.0000000000000000e+00 6.0000000000000000e+00
-6.0000000000000000e+00 6.0000000000000000e+00
-6.0000000000000000e+00 6.0000000000000000e+00
ITEM: ATOMS id type xs ys zs
1 2 0.429912 0.516391 0.5
2 1 0.476357 0.58558 0.5
3 1 0.5166 0.512608 0.5
4 1 0.586451 0.46716 0.5
5 1 0.504461 0.482062 0.5
6 1 0.50238 0.519765 0.5
7 1 0.507304 0.504526 0.5
ITEM: TIMESTEP
430
ITEM: NUMBER OF ATOMS
7
ITEM: BOX BOUNDS ff ff pp
-6.0000000000000000e+00 6.0000000000000000e+00
-6.0000000000000000e+00 6.0000000000000000e+00
-6.0000000000000000e+00 6.0000000000000000e+00
ITEM: ATOMS id type xs ys zs
1 2 0.429912 0.516391 0.5
2 1 0.476358 0.58558 0.5
3 1 0.5166 0.512607 0.5
4 1 0.586451 0.46716 0.5
5 1 0.504461 0.482062 0.5
6 1 0.50238 0.519765 0.5
7 1 0.507304 0.504526 0.5
ITEM: TIMESTEP
440
ITEM: NUMBER OF ATOMS
7
ITEM: BOX BOUNDS ff ff pp
-6.0000000000000000e+00 6.0000000000000000e+00
-6.0000000000000000e+00 6.0000000000000000e+00
-6.0000000000000000e+00 6.0000000000000000e+00
ITEM: ATOMS id type xs ys zs
1 2 0.429912 0.516391 0.5
2 1 0.476358 0.58558 0.5
3 1 0.5166 0.512607 0.5
4 1 0.586451 0.46716 0.5
5 1 0.504461 0.482062 0.5
6 1 0.50238 0.519765 0.5
7 1 0.507304 0.504526 0.5
ITEM: TIMESTEP
450
ITEM: NUMBER OF ATOMS
7
ITEM: BOX BOUNDS ff ff pp
-6.0000000000000000e+00 6.0000000000000000e+00
-6.0000000000000000e+00 6.0000000000000000e+00
-6.0000000000000000e+00 6.0000000000000000e+00
ITEM: ATOMS id type xs ys zs
1 2 0.429912 0.516391 0.5
2 1 0.476358 0.58558 0.5
3 1 0.516599 0.512607 0.5
4 1 0.586451 0.46716 0.5
5 1 0.504461 0.482061 0.5
6 1 0.50238 0.519765 0.5
7 1 0.507304 0.504526 0.5
ITEM: TIMESTEP
460
ITEM: NUMBER OF ATOMS
7
ITEM: BOX BOUNDS ff ff pp
-6.0000000000000000e+00 6.0000000000000000e+00
-6.0000000000000000e+00 6.0000000000000000e+00
-6.0000000000000000e+00 6.0000000000000000e+00
ITEM: ATOMS id type xs ys zs
1 2 0.429912 0.516391 0.5
2 1 0.476358 0.58558 0.5
3 1 0.516599 0.512607 0.5
4 1 0.586451 0.46716 0.5
5 1 0.504461 0.482061 0.5
6 1 0.50238 0.519765 0.5
7 1 0.507304 0.504526 0.5
ITEM: TIMESTEP
470
ITEM: NUMBER OF ATOMS
7
ITEM: BOX BOUNDS ff ff pp
-6.0000000000000000e+00 6.0000000000000000e+00
-6.0000000000000000e+00 6.0000000000000000e+00
-6.0000000000000000e+00 6.0000000000000000e+00
ITEM: ATOMS id type xs ys zs
1 2 0.429912 0.516391 0.5
2 1 0.476358 0.58558 0.5
3 1 0.516599 0.512607 0.5
4 1 0.586451 0.46716 0.5
5 1 0.504461 0.482061 0.5
6 1 0.50238 0.519765 0.5
7 1 0.507304 0.504526 0.5
ITEM: TIMESTEP
480
ITEM: NUMBER OF ATOMS
7
ITEM: BOX BOUNDS ff ff pp
-6.0000000000000000e+00 6.0000000000000000e+00
-6.0000000000000000e+00 6.0000000000000000e+00
-6.0000000000000000e+00 6.0000000000000000e+00
ITEM: ATOMS id type xs ys zs
1 2 0.429912 0.516391 0.5
2 1 0.476358 0.58558 0.5
3 1 0.516599 0.512607 0.5
4 1 0.586451 0.46716 0.5
5 1 0.504461 0.482061 0.5
6 1 0.50238 0.519765 0.5
7 1 0.507304 0.504525 0.5
ITEM: TIMESTEP
490
ITEM: NUMBER OF ATOMS
7
ITEM: BOX BOUNDS ff ff pp
-6.0000000000000000e+00 6.0000000000000000e+00
-6.0000000000000000e+00 6.0000000000000000e+00
-6.0000000000000000e+00 6.0000000000000000e+00
ITEM: ATOMS id type xs ys zs
1 2 0.429912 0.516391 0.5
2 1 0.476358 0.58558 0.5
3 1 0.516599 0.512607 0.5
4 1 0.586451 0.46716 0.5
5 1 0.504461 0.482061 0.5
6 1 0.50238 0.519765 0.5
7 1 0.507304 0.504525 0.5
ITEM: TIMESTEP
500
ITEM: NUMBER OF ATOMS
7
ITEM: BOX BOUNDS ff ff pp
-6.0000000000000000e+00 6.0000000000000000e+00
-6.0000000000000000e+00 6.0000000000000000e+00
-6.0000000000000000e+00 6.0000000000000000e+00
ITEM: ATOMS id type xs ys zs
1 2 0.429912 0.516391 0.5
2 1 0.476358 0.58558 0.5
3 1 0.516599 0.512607 0.5
4 1 0.586451 0.46716 0.5
5 1 0.504461 0.482061 0.5
6 1 0.50238 0.519765 0.5
7 1 0.507304 0.504525 0.5
ITEM: TIMESTEP
510
ITEM: NUMBER OF ATOMS
7
ITEM: BOX BOUNDS ff ff pp
-6.0000000000000000e+00 6.0000000000000000e+00
-6.0000000000000000e+00 6.0000000000000000e+00
-6.0000000000000000e+00 6.0000000000000000e+00
ITEM: ATOMS id type xs ys zs
1 2 0.429912 0.516391 0.5
2 1 0.476358 0.58558 0.5
3 1 0.516599 0.512607 0.5
4 1 0.586451 0.46716 0.5
5 1 0.504461 0.482061 0.5
6 1 0.50238 0.519765 0.5
7 1 0.507304 0.504525 0.5
ITEM: TIMESTEP
520
ITEM: NUMBER OF ATOMS
7
ITEM: BOX BOUNDS ff ff pp
-6.0000000000000000e+00 6.0000000000000000e+00
-6.0000000000000000e+00 6.0000000000000000e+00
-6.0000000000000000e+00 6.0000000000000000e+00
ITEM: ATOMS id type xs ys zs
1 2 0.429912 0.516391 0.5
2 1 0.476358 0.58558 0.5
3 1 0.516599 0.512607 0.5
4 1 0.586451 0.46716 0.5
5 1 0.504461 0.482061 0.5
6 1 0.50238 0.519765 0.5
7 1 0.507304 0.504525 0.5
ITEM: TIMESTEP
530
ITEM: NUMBER OF ATOMS
7
ITEM: BOX BOUNDS ff ff pp
-6.0000000000000000e+00 6.0000000000000000e+00
-6.0000000000000000e+00 6.0000000000000000e+00
-6.0000000000000000e+00 6.0000000000000000e+00
ITEM: ATOMS id type xs ys zs
1 2 0.429912 0.516391 0.5
2 1 0.476358 0.58558 0.5
3 1 0.516599 0.512607 0.5
4 1 0.586451 0.46716 0.5
5 1 0.504461 0.482061 0.5
6 1 0.50238 0.519765 0.5
7 1 0.507304 0.504525 0.5
ITEM: TIMESTEP
540
ITEM: NUMBER OF ATOMS
7
ITEM: BOX BOUNDS ff ff pp
-6.0000000000000000e+00 6.0000000000000000e+00
-6.0000000000000000e+00 6.0000000000000000e+00
-6.0000000000000000e+00 6.0000000000000000e+00
ITEM: ATOMS id type xs ys zs
1 2 0.429912 0.516391 0.5
2 1 0.476359 0.58558 0.5
3 1 0.516599 0.512607 0.5
4 1 0.586451 0.46716 0.5
5 1 0.504461 0.48206 0.5
6 1 0.50238 0.519765 0.5
7 1 0.507304 0.504525 0.5
ITEM: TIMESTEP
550
ITEM: NUMBER OF ATOMS
7
ITEM: BOX BOUNDS ff ff pp
-6.0000000000000000e+00 6.0000000000000000e+00
-6.0000000000000000e+00 6.0000000000000000e+00
-6.0000000000000000e+00 6.0000000000000000e+00
ITEM: ATOMS id type xs ys zs
1 2 0.429912 0.516391 0.5
2 1 0.476359 0.58558 0.5
3 1 0.516599 0.512607 0.5
4 1 0.586451 0.46716 0.5
5 1 0.504461 0.48206 0.5
6 1 0.502381 0.519765 0.5
7 1 0.507304 0.504525 0.5
ITEM: TIMESTEP
560
ITEM: NUMBER OF ATOMS
7
ITEM: BOX BOUNDS ff ff pp
-6.0000000000000000e+00 6.0000000000000000e+00
-6.0000000000000000e+00 6.0000000000000000e+00
-6.0000000000000000e+00 6.0000000000000000e+00
ITEM: ATOMS id type xs ys zs
1 2 0.429913 0.516391 0.5
2 1 0.476359 0.58558 0.5
3 1 0.516599 0.512607 0.5
4 1 0.586451 0.46716 0.5
5 1 0.504461 0.48206 0.5
6 1 0.502381 0.519765 0.5
7 1 0.507304 0.504524 0.5
ITEM: TIMESTEP
570
ITEM: NUMBER OF ATOMS
7
ITEM: BOX BOUNDS ff ff pp
-6.0000000000000000e+00 6.0000000000000000e+00
-6.0000000000000000e+00 6.0000000000000000e+00
-6.0000000000000000e+00 6.0000000000000000e+00
ITEM: ATOMS id type xs ys zs
1 2 0.429913 0.516391 0.5
2 1 0.476359 0.58558 0.5
3 1 0.516599 0.512607 0.5
4 1 0.586451 0.46716 0.5
5 1 0.504461 0.48206 0.5
6 1 0.502381 0.519765 0.5
7 1 0.507304 0.504524 0.5
ITEM: TIMESTEP
580
ITEM: NUMBER OF ATOMS
7
ITEM: BOX BOUNDS ff ff pp
-6.0000000000000000e+00 6.0000000000000000e+00
-6.0000000000000000e+00 6.0000000000000000e+00
-6.0000000000000000e+00 6.0000000000000000e+00
ITEM: ATOMS id type xs ys zs
1 2 0.429913 0.516391 0.5
2 1 0.476359 0.58558 0.5
3 1 0.516599 0.512606 0.5
4 1 0.586451 0.46716 0.5
5 1 0.504461 0.48206 0.5
6 1 0.502381 0.519764 0.5
7 1 0.507304 0.504524 0.5
ITEM: TIMESTEP
590
ITEM: NUMBER OF ATOMS
7
ITEM: BOX BOUNDS ff ff pp
-6.0000000000000000e+00 6.0000000000000000e+00
-6.0000000000000000e+00 6.0000000000000000e+00
-6.0000000000000000e+00 6.0000000000000000e+00
ITEM: ATOMS id type xs ys zs
1 2 0.429913 0.516391 0.5
2 1 0.476359 0.58558 0.5
3 1 0.516599 0.512606 0.5
4 1 0.586451 0.46716 0.5
5 1 0.504461 0.48206 0.5
6 1 0.502381 0.519764 0.5
7 1 0.507304 0.504524 0.5
ITEM: TIMESTEP
600
ITEM: NUMBER OF ATOMS
7
ITEM: BOX BOUNDS ff ff pp
-6.0000000000000000e+00 6.0000000000000000e+00
-6.0000000000000000e+00 6.0000000000000000e+00
-6.0000000000000000e+00 6.0000000000000000e+00
ITEM: ATOMS id type xs ys zs
1 2 0.429913 0.516391 0.5
2 1 0.476359 0.58558 0.5
3 1 0.516599 0.512606 0.5
4 1 0.586451 0.467159 0.5
5 1 0.504461 0.48206 0.5
6 1 0.502381 0.519764 0.5
7 1 0.507304 0.504524 0.5
ITEM: TIMESTEP
610
ITEM: NUMBER OF ATOMS
7
ITEM: BOX BOUNDS ff ff pp
-6.0000000000000000e+00 6.0000000000000000e+00
-6.0000000000000000e+00 6.0000000000000000e+00
-6.0000000000000000e+00 6.0000000000000000e+00
ITEM: ATOMS id type xs ys zs
1 2 0.429913 0.516391 0.5
2 1 0.476359 0.58558 0.5
3 1 0.516599 0.512606 0.5
4 1 0.586451 0.467159 0.5
5 1 0.504461 0.48206 0.5
6 1 0.502381 0.519764 0.5
7 1 0.507304 0.504524 0.5
ITEM: TIMESTEP
620
ITEM: NUMBER OF ATOMS
7
ITEM: BOX BOUNDS ff ff pp
-6.0000000000000000e+00 6.0000000000000000e+00
-6.0000000000000000e+00 6.0000000000000000e+00
-6.0000000000000000e+00 6.0000000000000000e+00
ITEM: ATOMS id type xs ys zs
1 2 0.429913 0.516391 0.5
2 1 0.476359 0.58558 0.5
3 1 0.516599 0.512606 0.5
4 1 0.586451 0.467159 0.5
5 1 0.504461 0.48206 0.5
6 1 0.502381 0.519764 0.5
7 1 0.507304 0.504524 0.5
ITEM: TIMESTEP
630
ITEM: NUMBER OF ATOMS
7
ITEM: BOX BOUNDS ff ff pp
-6.0000000000000000e+00 6.0000000000000000e+00
-6.0000000000000000e+00 6.0000000000000000e+00
-6.0000000000000000e+00 6.0000000000000000e+00
ITEM: ATOMS id type xs ys zs
1 2 0.429913 0.516391 0.5
2 1 0.47636 0.58558 0.5
3 1 0.516599 0.512606 0.5
4 1 0.586451 0.467159 0.5
5 1 0.504461 0.482059 0.5
6 1 0.502381 0.519764 0.5
7 1 0.507305 0.504524 0.5
ITEM: TIMESTEP
640
ITEM: NUMBER OF ATOMS
7
ITEM: BOX BOUNDS ff ff pp
-6.0000000000000000e+00 6.0000000000000000e+00
-6.0000000000000000e+00 6.0000000000000000e+00
-6.0000000000000000e+00 6.0000000000000000e+00
ITEM: ATOMS id type xs ys zs
1 2 0.429913 0.516391 0.5
2 1 0.47636 0.58558 0.5
3 1 0.516599 0.512606 0.5
4 1 0.586451 0.467159 0.5
5 1 0.504461 0.482059 0.5
6 1 0.502381 0.519764 0.5
7 1 0.507305 0.504524 0.5
ITEM: TIMESTEP
650
ITEM: NUMBER OF ATOMS
7
ITEM: BOX BOUNDS ff ff pp
-6.0000000000000000e+00 6.0000000000000000e+00
-6.0000000000000000e+00 6.0000000000000000e+00
-6.0000000000000000e+00 6.0000000000000000e+00
ITEM: ATOMS id type xs ys zs
1 2 0.429913 0.516391 0.5
2 1 0.47636 0.58558 0.5
3 1 0.516599 0.512606 0.5
4 1 0.586451 0.467159 0.5
5 1 0.504461 0.482059 0.5
6 1 0.502381 0.519764 0.5
7 1 0.507305 0.504523 0.5
ITEM: TIMESTEP
660
ITEM: NUMBER OF ATOMS
7
ITEM: BOX BOUNDS ff ff pp
-6.0000000000000000e+00 6.0000000000000000e+00
-6.0000000000000000e+00 6.0000000000000000e+00
-6.0000000000000000e+00 6.0000000000000000e+00
ITEM: ATOMS id type xs ys zs
1 2 0.429913 0.516391 0.5
2 1 0.47636 0.58558 0.5
3 1 0.516599 0.512606 0.5
4 1 0.586451 0.467159 0.5
5 1 0.504461 0.482059 0.5
6 1 0.502381 0.519764 0.5
7 1 0.507305 0.504523 0.5
ITEM: TIMESTEP
670
ITEM: NUMBER OF ATOMS
7
ITEM: BOX BOUNDS ff ff pp
-6.0000000000000000e+00 6.0000000000000000e+00
-6.0000000000000000e+00 6.0000000000000000e+00
-6.0000000000000000e+00 6.0000000000000000e+00
ITEM: ATOMS id type xs ys zs
1 2 0.429913 0.516391 0.5
2 1 0.47636 0.58558 0.5
3 1 0.516599 0.512606 0.5
4 1 0.586451 0.467159 0.5
5 1 0.504461 0.482059 0.5
6 1 0.502381 0.519764 0.5
7 1 0.507305 0.504523 0.5
ITEM: TIMESTEP
680
ITEM: NUMBER OF ATOMS
7
ITEM: BOX BOUNDS ff ff pp
-6.0000000000000000e+00 6.0000000000000000e+00
-6.0000000000000000e+00 6.0000000000000000e+00
-6.0000000000000000e+00 6.0000000000000000e+00
ITEM: ATOMS id type xs ys zs
1 2 0.429913 0.516391 0.5
2 1 0.47636 0.58558 0.5
3 1 0.516599 0.512606 0.5
4 1 0.586451 0.467159 0.5
5 1 0.504461 0.482059 0.5
6 1 0.502381 0.519764 0.5
7 1 0.507305 0.504523 0.5
ITEM: TIMESTEP
690
ITEM: NUMBER OF ATOMS
7
ITEM: BOX BOUNDS ff ff pp
-6.0000000000000000e+00 6.0000000000000000e+00
-6.0000000000000000e+00 6.0000000000000000e+00
-6.0000000000000000e+00 6.0000000000000000e+00
ITEM: ATOMS id type xs ys zs
1 2 0.429913 0.516391 0.5
2 1 0.47636 0.58558 0.5
3 1 0.516599 0.512606 0.5
4 1 0.586451 0.467159 0.5
5 1 0.504461 0.482059 0.5
6 1 0.502381 0.519764 0.5
7 1 0.507305 0.504523 0.5
ITEM: TIMESTEP
700
ITEM: NUMBER OF ATOMS
7
ITEM: BOX BOUNDS ff ff pp
-6.0000000000000000e+00 6.0000000000000000e+00
-6.0000000000000000e+00 6.0000000000000000e+00
-6.0000000000000000e+00 6.0000000000000000e+00
ITEM: ATOMS id type xs ys zs
1 2 0.429913 0.516391 0.5
2 1 0.47636 0.58558 0.5
3 1 0.516599 0.512606 0.5
4 1 0.586451 0.467159 0.5
5 1 0.504461 0.482059 0.5
6 1 0.502381 0.519764 0.5
7 1 0.507305 0.504523 0.5
ITEM: TIMESTEP
710
ITEM: NUMBER OF ATOMS
7
ITEM: BOX BOUNDS ff ff pp
-6.0000000000000000e+00 6.0000000000000000e+00
-6.0000000000000000e+00 6.0000000000000000e+00
-6.0000000000000000e+00 6.0000000000000000e+00
ITEM: ATOMS id type xs ys zs
1 2 0.429913 0.516391 0.5
2 1 0.47636 0.58558 0.5
3 1 0.516599 0.512606 0.5