ITEM: TIMESTEP
0
ITEM: NUMBER OF ATOMS
7
ITEM: BOX BOUNDS ff ff pp
-6.0000000000000000e+00 6.0000000000000000e+00
-6.0000000000000000e+00 6.0000000000000000e+00
-6.0000000000000000e+00 6.0000000000000000e+00
ITEM: ATOMS id type xs ys zs
1 2 0.449465 0.51319 0.5
2 1 0.501072 0.561753 0.5
3 1 0.520607 0.493578 0.5
4 1 0.576533 0.443564 0.5
5 1 0.511679 0.471465 0.5
6 1 0.510171 0.502214 0.5
7 1 0.51663 0.491821 0.5
ITEM: TIMESTEP
10
ITEM: NUMBER OF ATOMS
7
ITEM: BOX BOUNDS ff ff pp
-6.0000000000000000e+00 6.0000000000000000e+00
-6.0000000000000000e+00 6.0000000000000000e+00
-6.0000000000000000e+00 6.0000000000000000e+00
ITEM: ATOMS id type xs ys zs
1 2 0.440747 0.513741 0.5
2 1 0.502471 0.572245 0.5
3 1 0.524784 0.492401 0.5
4 1 0.586264 0.4364 0.5
5 1 0.509811 0.469447 0.5
6 1 0.508815 0.500159 0.5
7 1 0.514737 0.490593 0.5
ITEM: TIMESTEP
20
ITEM: NUMBER OF ATOMS
7
ITEM: BOX BOUNDS ff ff pp
-6.0000000000000000e+00 6.0000000000000000e+00
-6.0000000000000000e+00 6.0000000000000000e+00
-6.0000000000000000e+00 6.0000000000000000e+00
ITEM: ATOMS id type xs ys zs
1 2 0.440248 0.514357 0.5
2 1 0.500965 0.571645 0.5
3 1 0.525767 0.492505 0.5
4 1 0.586013 0.435366 0.5
5 1 0.508887 0.468361 0.5
6 1 0.51217 0.501461 0.5
7 1 0.514214 0.490177 0.5
ITEM: TIMESTEP
30
ITEM: NUMBER OF ATOMS
7
ITEM: BOX BOUNDS ff ff pp
-6.0000000000000000e+00 6.0000000000000000e+00
-6.0000000000000000e+00 6.0000000000000000e+00
-6.0000000000000000e+00 6.0000000000000000e+00
ITEM: ATOMS id type xs ys zs
1 2 0.440319 0.51423 0.5
2 1 0.500745 0.571726 0.5
3 1 0.52591 0.492671 0.5
4 1 0.58579 0.435129 0.5
5 1 0.508846 0.468223 0.5
6 1 0.512438 0.501695 0.5
7 1 0.514308 0.490031 0.5
ITEM: TIMESTEP
40
ITEM: NUMBER OF ATOMS
7
ITEM: BOX BOUNDS ff ff pp
-6.0000000000000000e+00 6.0000000000000000e+00
-6.0000000000000000e+00 6.0000000000000000e+00
-6.0000000000000000e+00 6.0000000000000000e+00
ITEM: ATOMS id type xs ys zs
1 2 0.440435 0.513943 0.5
2 1 0.500313 0.571967 0.5
3 1 0.526199 0.493006 0.5
4 1 0.585376 0.434557 0.5
5 1 0.508733 0.467924 0.5
6 1 0.512951 0.502183 0.5
7 1 0.514598 0.489688 0.5
ITEM: TIMESTEP
50
ITEM: NUMBER OF ATOMS
7
ITEM: BOX BOUNDS ff ff pp
-6.0000000000000000e+00 6.0000000000000000e+00
-6.0000000000000000e+00 6.0000000000000000e+00
-6.0000000000000000e+00 6.0000000000000000e+00
ITEM: ATOMS id type xs ys zs
1 2 0.440535 0.513742 0.5
2 1 0.500046 0.572111 0.5
3 1 0.526395 0.493198 0.5
4 1 0.58508 0.434131 0.5
5 1 0.50866 0.467703 0.5
6 1 0.513327 0.502506 0.5
7 1 0.514812 0.489434 0.5
ITEM: TIMESTEP
60
ITEM: NUMBER OF ATOMS
7
ITEM: BOX BOUNDS ff ff pp
-6.0000000000000000e+00 6.0000000000000000e+00
-6.0000000000000000e+00 6.0000000000000000e+00
-6.0000000000000000e+00 6.0000000000000000e+00
ITEM: ATOMS id type xs ys zs
1 2 0.440562 0.513693 0.5
2 1 0.499992 0.572137 0.5
3 1 0.526444 0.493231 0.5
4 1 0.585009 0.434017 0.5
5 1 0.508645 0.467647 0.5
6 1 0.513425 0.502578 0.5
7 1 0.514865 0.489371 0.5
ITEM: TIMESTEP
70
ITEM: NUMBER OF ATOMS
7
ITEM: BOX BOUNDS ff ff pp
-6.0000000000000000e+00 6.0000000000000000e+00
-6.0000000000000000e+00 6.0000000000000000e+00
-6.0000000000000000e+00 6.0000000000000000e+00
ITEM: ATOMS id type xs ys zs
1 2 0.440607 0.513615 0.5
2 1 0.499922 0.572165 0.5
3 1 0.526524 0.493265 0.5
4 1 0.584896 0.433817 0.5
5 1 0.508628 0.467559 0.5
6 1 0.513589 0.502679 0.5
7 1 0.514948 0.489271 0.5
ITEM: TIMESTEP
80
ITEM: NUMBER OF ATOMS
7
ITEM: BOX BOUNDS ff ff pp
-6.0000000000000000e+00 6.0000000000000000e+00
-6.0000000000000000e+00 6.0000000000000000e+00
-6.0000000000000000e+00 6.0000000000000000e+00
ITEM: ATOMS id type xs ys zs
1 2 0.440652 0.513543 0.5
2 1 0.499891 0.572163 0.5
3 1 0.526606 0.493263 0.5
4 1 0.584795 0.4336 0.5
5 1 0.508625 0.46748 0.5
6 1 0.513747 0.502739 0.5
7 1 0.515025 0.489184 0.5
ITEM: TIMESTEP
90
ITEM: NUMBER OF ATOMS
7
ITEM: BOX BOUNDS ff ff pp
-6.0000000000000000e+00 6.0000000000000000e+00
-6.0000000000000000e+00 6.0000000000000000e+00
-6.0000000000000000e+00 6.0000000000000000e+00
ITEM: ATOMS id type xs ys zs
1 2 0.44066 0.513533 0.5
2 1 0.499891 0.572159 0.5
3 1 0.526619 0.493258 0.5
4 1 0.58478 0.433564 0.5
5 1 0.508626 0.467469 0.5
6 1 0.513771 0.502743 0.5
7 1 0.515036 0.489172 0.5
ITEM: TIMESTEP
100
ITEM: NUMBER OF ATOMS
7
ITEM: BOX BOUNDS ff ff pp
-6.0000000000000000e+00 6.0000000000000000e+00
-6.0000000000000000e+00 6.0000000000000000e+00
-6.0000000000000000e+00 6.0000000000000000e+00
ITEM: ATOMS id type xs ys zs
1 2 0.440675 0.513511 0.5
2 1 0.499895 0.572147 0.5
3 1 0.526648 0.493244 0.5
4 1 0.58475 0.433483 0.5
5 1 0.50863 0.467447 0.5
6 1 0.513822 0.502747 0.5
7 1 0.51506 0.489147 0.5
ITEM: TIMESTEP
110
ITEM: NUMBER OF ATOMS
7
ITEM: BOX BOUNDS ff ff pp
-6.0000000000000000e+00 6.0000000000000000e+00
-6.0000000000000000e+00 6.0000000000000000e+00
-6.0000000000000000e+00 6.0000000000000000e+00
ITEM: ATOMS id type xs ys zs
1 2 0.440697 0.513482 0.5
2 1 0.499909 0.572123 0.5
3 1 0.526689 0.493218 0.5
4 1 0.584712 0.43337 0.5
5 1 0.50864 0.467419 0.5
6 1 0.513887 0.502741 0.5
7 1 0.515091 0.489117 0.5
ITEM: TIMESTEP
120
ITEM: NUMBER OF ATOMS
7
ITEM: BOX BOUNDS ff ff pp
-6.0000000000000000e+00 6.0000000000000000e+00
-6.0000000000000000e+00 6.0000000000000000e+00
-6.0000000000000000e+00 6.0000000000000000e+00
ITEM: ATOMS id type xs ys zs
1 2 0.440703 0.513473 0.5
2 1 0.499916 0.572114 0.5
3 1 0.526702 0.493208 0.5
4 1 0.584701 0.433334 0.5
5 1 0.508644 0.46741 0.5
6 1 0.513907 0.502737 0.5
7 1 0.5151 0.489109 0.5
ITEM: TIMESTEP
130
ITEM: NUMBER OF ATOMS
7
ITEM: BOX BOUNDS ff ff pp
-6.0000000000000000e+00 6.0000000000000000e+00
-6.0000000000000000e+00 6.0000000000000000e+00
-6.0000000000000000e+00 6.0000000000000000e+00
ITEM: ATOMS id type xs ys zs
1 2 0.440709 0.513466 0.5
2 1 0.499922 0.572106 0.5
3 1 0.526714 0.493199 0.5
4 1 0.584691 0.433302 0.5
5 1 0.508647 0.467403 0.5
6 1 0.513924 0.502733 0.5
7 1 0.515109 0.489101 0.5
ITEM: TIMESTEP
140
ITEM: NUMBER OF ATOMS
7
ITEM: BOX BOUNDS ff ff pp
-6.0000000000000000e+00 6.0000000000000000e+00
-6.0000000000000000e+00 6.0000000000000000e+00
-6.0000000000000000e+00 6.0000000000000000e+00
ITEM: ATOMS id type xs ys zs
1 2 0.440718 0.513457 0.5
2 1 0.499931 0.572095 0.5
3 1 0.526728 0.493187 0.5
4 1 0.58468 0.433262 0.5
5 1 0.508651 0.467393 0.5
6 1 0.513946 0.502727 0.5
7 1 0.515119 0.48909 0.5
ITEM: TIMESTEP
150
ITEM: NUMBER OF ATOMS
7
ITEM: BOX BOUNDS ff ff pp
-6.0000000000000000e+00 6.0000000000000000e+00
-6.0000000000000000e+00 6.0000000000000000e+00
-6.0000000000000000e+00 6.0000000000000000e+00
ITEM: ATOMS id type xs ys zs
1 2 0.44072 0.513455 0.5
2 1 0.499934 0.572092 0.5
3 1 0.526732 0.493183 0.5
4 1 0.584676 0.43325 0.5
5 1 0.508652 0.467389 0.5
6 1 0.513953 0.502725 0.5
7 1 0.515122 0.489086 0.5
ITEM: TIMESTEP
160
ITEM: NUMBER OF ATOMS
7
ITEM: BOX BOUNDS ff ff pp
-6.0000000000000000e+00 6.0000000000000000e+00
-6.0000000000000000e+00 6.0000000000000000e+00
-6.0000000000000000e+00 6.0000000000000000e+00
ITEM: ATOMS id type xs ys zs
1 2 0.440723 0.513452 0.5
2 1 0.499937 0.572089 0.5
3 1 0.526736 0.493179 0.5
4 1 0.584673 0.433238 0.5
5 1 0.508653 0.467385 0.5
6 1 0.513959 0.502724 0.5
7 1 0.515125 0.489082 0.5
ITEM: TIMESTEP
170
ITEM: NUMBER OF ATOMS
7
ITEM: BOX BOUNDS ff ff pp
-6.0000000000000000e+00 6.0000000000000000e+00
-6.0000000000000000e+00 6.0000000000000000e+00
-6.0000000000000000e+00 6.0000000000000000e+00
ITEM: ATOMS id type xs ys zs
1 2 0.440725 0.513451 0.5
2 1 0.499939 0.572088 0.5
3 1 0.526738 0.493177 0.5
4 1 0.584671 0.433232 0.5
5 1 0.508653 0.467382 0.5
6 1 0.513963 0.502723 0.5
7 1 0.515127 0.489079 0.5
ITEM: TIMESTEP
180
ITEM: NUMBER OF ATOMS
7
ITEM: BOX BOUNDS ff ff pp
-6.0000000000000000e+00 6.0000000000000000e+00
-6.0000000000000000e+00 6.0000000000000000e+00
-6.0000000000000000e+00 6.0000000000000000e+00
ITEM: ATOMS id type xs ys zs
1 2 0.440728 0.51345 0.5
2 1 0.499943 0.572086 0.5
3 1 0.526741 0.493174 0.5
4 1 0.584669 0.433223 0.5
5 1 0.508653 0.467377 0.5
6 1 0.513968 0.502723 0.5
7 1 0.51513 0.489073 0.5
ITEM: TIMESTEP
190
ITEM: NUMBER OF ATOMS
7
ITEM: BOX BOUNDS ff ff pp
-6.0000000000000000e+00 6.0000000000000000e+00
-6.0000000000000000e+00 6.0000000000000000e+00
-6.0000000000000000e+00 6.0000000000000000e+00
ITEM: ATOMS id type xs ys zs
1 2 0.440729 0.513449 0.5
2 1 0.499943 0.572086 0.5
3 1 0.526742 0.493174 0.5
4 1 0.584668 0.433222 0.5
5 1 0.508653 0.467375 0.5
6 1 0.513969 0.502722 0.5
7 1 0.515131 0.489071 0.5
ITEM: TIMESTEP
200
ITEM: NUMBER OF ATOMS
7
ITEM: BOX BOUNDS ff ff pp
-6.0000000000000000e+00 6.0000000000000000e+00
-6.0000000000000000e+00 6.0000000000000000e+00
-6.0000000000000000e+00 6.0000000000000000e+00
ITEM: ATOMS id type xs ys zs
1 2 0.440731 0.513449 0.5
2 1 0.499946 0.572085 0.5
3 1 0.526742 0.493172 0.5
4 1 0.584667 0.433218 0.5
5 1 0.508652 0.467372 0.5
6 1 0.513972 0.502722 0.5
7 1 0.515132 0.489068 0.5
ITEM: TIMESTEP
210
ITEM: NUMBER OF ATOMS
7
ITEM: BOX BOUNDS ff ff pp
-6.0000000000000000e+00 6.0000000000000000e+00
-6.0000000000000000e+00 6.0000000000000000e+00
-6.0000000000000000e+00 6.0000000000000000e+00
ITEM: ATOMS id type xs ys zs
1 2 0.440734 0.513449 0.5
2 1 0.499949 0.572085 0.5
3 1 0.526743 0.493171 0.5
4 1 0.584667 0.433215 0.5
5 1 0.508651 0.467367 0.5
6 1 0.513974 0.502722 0.5
7 1 0.515133 0.489062 0.5
ITEM: TIMESTEP
220
ITEM: NUMBER OF ATOMS
7
ITEM: BOX BOUNDS ff ff pp
-6.0000000000000000e+00 6.0000000000000000e+00
-6.0000000000000000e+00 6.0000000000000000e+00
-6.0000000000000000e+00 6.0000000000000000e+00
ITEM: ATOMS id type xs ys zs
1 2 0.440735 0.513449 0.5
2 1 0.49995 0.572085 0.5
3 1 0.526743 0.49317 0.5
4 1 0.584667 0.433215 0.5
5 1 0.508651 0.467365 0.5
6 1 0.513974 0.502722 0.5
7 1 0.515134 0.48906 0.5
ITEM: TIMESTEP
230
ITEM: NUMBER OF ATOMS
7
ITEM: BOX BOUNDS ff ff pp
-6.0000000000000000e+00 6.0000000000000000e+00
-6.0000000000000000e+00 6.0000000000000000e+00
-6.0000000000000000e+00 6.0000000000000000e+00
ITEM: ATOMS id type xs ys zs
1 2 0.440736 0.51345 0.5
2 1 0.499951 0.572085 0.5
3 1 0.526743 0.49317 0.5
4 1 0.584667 0.433215 0.5
5 1 0.50865 0.467364 0.5
6 1 0.513974 0.502722 0.5
7 1 0.515134 0.489058 0.5
ITEM: TIMESTEP
240
ITEM: NUMBER OF ATOMS
7
ITEM: BOX BOUNDS ff ff pp
-6.0000000000000000e+00 6.0000000000000000e+00
-6.0000000000000000e+00 6.0000000000000000e+00
-6.0000000000000000e+00 6.0000000000000000e+00
ITEM: ATOMS id type xs ys zs
1 2 0.440738 0.51345 0.5
2 1 0.499954 0.572085 0.5
3 1 0.526742 0.493169 0.5
4 1 0.584668 0.433215 0.5
5 1 0.508649 0.46736 0.5
6 1 0.513974 0.502722 0.5
7 1 0.515134 0.489055 0.5
ITEM: TIMESTEP
250
ITEM: NUMBER OF ATOMS
7
ITEM: BOX BOUNDS ff ff pp
-6.0000000000000000e+00 6.0000000000000000e+00
-6.0000000000000000e+00 6.0000000000000000e+00
-6.0000000000000000e+00 6.0000000000000000e+00
ITEM: ATOMS id type xs ys zs
1 2 0.440739 0.513451 0.5
2 1 0.499955 0.572086 0.5
3 1 0.526742 0.493169 0.5
4 1 0.584668 0.433216 0.5
5 1 0.508648 0.467357 0.5
6 1 0.513974 0.502722 0.5
7 1 0.515135 0.489051 0.5
ITEM: TIMESTEP
260
ITEM: NUMBER OF ATOMS
7
ITEM: BOX BOUNDS ff ff pp
-6.0000000000000000e+00 6.0000000000000000e+00
-6.0000000000000000e+00 6.0000000000000000e+00
-6.0000000000000000e+00 6.0000000000000000e+00
ITEM: ATOMS id type xs ys zs
1 2 0.44074 0.513452 0.5
2 1 0.499956 0.572086 0.5
3 1 0.526741 0.493168 0.5
4 1 0.584669 0.433216 0.5
5 1 0.508648 0.467356 0.5
6 1 0.513974 0.502722 0.5
7 1 0.515135 0.48905 0.5
ITEM: TIMESTEP
270
ITEM: NUMBER OF ATOMS
7
ITEM: BOX BOUNDS ff ff pp
-6.0000000000000000e+00 6.0000000000000000e+00
-6.0000000000000000e+00 6.0000000000000000e+00
-6.0000000000000000e+00 6.0000000000000000e+00
ITEM: ATOMS id type xs ys zs
1 2 0.440742 0.513452 0.5
2 1 0.499958 0.572087 0.5
3 1 0.526741 0.493168 0.5
4 1 0.584669 0.433217 0.5
5 1 0.508647 0.467354 0.5
6 1 0.513974 0.502722 0.5
7 1 0.515135 0.489047 0.5
ITEM: TIMESTEP
280
ITEM: NUMBER OF ATOMS
7
ITEM: BOX BOUNDS ff ff pp
-6.0000000000000000e+00 6.0000000000000000e+00
-6.0000000000000000e+00 6.0000000000000000e+00
-6.0000000000000000e+00 6.0000000000000000e+00
ITEM: ATOMS id type xs ys zs
1 2 0.440743 0.513453 0.5
2 1 0.499959 0.572087 0.5
3 1 0.52674 0.493168 0.5
4 1 0.58467 0.433218 0.5
5 1 0.508646 0.467351 0.5
6 1 0.513973 0.502722 0.5
7 1 0.515135 0.489044 0.5
ITEM: TIMESTEP
290
ITEM: NUMBER OF ATOMS
7
ITEM: BOX BOUNDS ff ff pp
-6.0000000000000000e+00 6.0000000000000000e+00
-6.0000000000000000e+00 6.0000000000000000e+00
-6.0000000000000000e+00 6.0000000000000000e+00
ITEM: ATOMS id type xs ys zs
1 2 0.440743 0.513454 0.5
2 1 0.49996 0.572088 0.5
3 1 0.52674 0.493168 0.5
4 1 0.58467 0.433219 0.5
5 1 0.508645 0.46735 0.5
6 1 0.513973 0.502722 0.5
7 1 0.515135 0.489043 0.5
ITEM: TIMESTEP
300
ITEM: NUMBER OF ATOMS
7
ITEM: BOX BOUNDS ff ff pp
-6.0000000000000000e+00 6.0000000000000000e+00
-6.0000000000000000e+00 6.0000000000000000e+00
-6.0000000000000000e+00 6.0000000000000000e+00
ITEM: ATOMS id type xs ys zs
1 2 0.440745 0.513455 0.5
2 1 0.499962 0.572088 0.5
3 1 0.526739 0.493168 0.5
4 1 0.584671 0.43322 0.5
5 1 0.508644 0.467347 0.5
6 1 0.513973 0.502722 0.5
7 1 0.515135 0.48904 0.5
ITEM: TIMESTEP
310
ITEM: NUMBER OF ATOMS
7
ITEM: BOX BOUNDS ff ff pp
-6.0000000000000000e+00 6.0000000000000000e+00
-6.0000000000000000e+00 6.0000000000000000e+00
-6.0000000000000000e+00 6.0000000000000000e+00
ITEM: ATOMS id type xs ys zs
1 2 0.440746 0.513455 0.5
2 1 0.499963 0.572089 0.5
3 1 0.526738 0.493168 0.5
4 1 0.584671 0.433221 0.5
5 1 0.508644 0.467346 0.5
6 1 0.513972 0.502723 0.5
7 1 0.515135 0.489038 0.5
ITEM: TIMESTEP
320
ITEM: NUMBER OF ATOMS
7
ITEM: BOX BOUNDS ff ff pp
-6.0000000000000000e+00 6.0000000000000000e+00
-6.0000000000000000e+00 6.0000000000000000e+00
-6.0000000000000000e+00 6.0000000000000000e+00
ITEM: ATOMS id type xs ys zs
1 2 0.440746 0.513456 0.5
2 1 0.499964 0.572089 0.5
3 1 0.526738 0.493168 0.5
4 1 0.584672 0.433222 0.5
5 1 0.508643 0.467344 0.5
6 1 0.513972 0.502723 0.5
7 1 0.515135 0.489036 0.5
ITEM: TIMESTEP
330
ITEM: NUMBER OF ATOMS
7
ITEM: BOX BOUNDS ff ff pp
-6.0000000000000000e+00 6.0000000000000000e+00
-6.0000000000000000e+00 6.0000000000000000e+00
-6.0000000000000000e+00 6.0000000000000000e+00
ITEM: ATOMS id type xs ys zs
1 2 0.440748 0.513457 0.5
2 1 0.499965 0.57209 0.5
3 1 0.526737 0.493167 0.5
4 1 0.584673 0.433224 0.5
5 1 0.508642 0.467342 0.5
6 1 0.513971 0.502723 0.5
7 1 0.515136 0.489033 0.5
ITEM: TIMESTEP
340
ITEM: NUMBER OF ATOMS
7
ITEM: BOX BOUNDS ff ff pp
-6.0000000000000000e+00 6.0000000000000000e+00
-6.0000000000000000e+00 6.0000000000000000e+00
-6.0000000000000000e+00 6.0000000000000000e+00
ITEM: ATOMS id type xs ys zs
1 2 0.440749 0.513457 0.5
2 1 0.499966 0.57209 0.5
3 1 0.526736 0.493167 0.5
4 1 0.584673 0.433225 0.5
5 1 0.508641 0.46734 0.5
6 1 0.513971 0.502723 0.5
7 1 0.515136 0.489032 0.5
ITEM: TIMESTEP
350
ITEM: NUMBER OF ATOMS
7
ITEM: BOX BOUNDS ff ff pp
-6.0000000000000000e+00 6.0000000000000000e+00
-6.0000000000000000e+00 6.0000000000000000e+00
-6.0000000000000000e+00 6.0000000000000000e+00
ITEM: ATOMS id type xs ys zs
1 2 0.440749 0.513458 0.5
2 1 0.499967 0.572091 0.5
3 1 0.526736 0.493167 0.5
4 1 0.584674 0.433226 0.5
5 1 0.508641 0.467338 0.5
6 1 0.513971 0.502723 0.5
7 1 0.515136 0.48903 0.5
ITEM: TIMESTEP
360
ITEM: NUMBER OF ATOMS
7
ITEM: BOX BOUNDS ff ff pp
-6.0000000000000000e+00 6.0000000000000000e+00
-6.0000000000000000e+00 6.0000000000000000e+00
-6.0000000000000000e+00 6.0000000000000000e+00
ITEM: ATOMS id type xs ys zs
1 2 0.440751 0.513459 0.5
2 1 0.499969 0.572091 0.5
3 1 0.526735 0.493167 0.5
4 1 0.584674 0.433228 0.5
5 1 0.50864 0.467336 0.5
6 1 0.51397 0.502724 0.5
7 1 0.515136 0.489027 0.5
ITEM: TIMESTEP
370
ITEM: NUMBER OF ATOMS
7
ITEM: BOX BOUNDS ff ff pp
-6.0000000000000000e+00 6.0000000000000000e+00
-6.0000000000000000e+00 6.0000000000000000e+00
-6.0000000000000000e+00 6.0000000000000000e+00
ITEM: ATOMS id type xs ys zs
1 2 0.440752 0.51346 0.5
2 1 0.49997 0.572092 0.5
3 1 0.526734 0.493167 0.5
4 1 0.584675 0.433229 0.5
5 1 0.508639 0.467334 0.5
6 1 0.51397 0.502724 0.5
7 1 0.515136 0.489025 0.5
ITEM: TIMESTEP
380
ITEM: NUMBER OF ATOMS
7
ITEM: BOX BOUNDS ff ff pp
-6.0000000000000000e+00 6.0000000000000000e+00
-6.0000000000000000e+00 6.0000000000000000e+00
-6.0000000000000000e+00 6.0000000000000000e+00
ITEM: ATOMS id type xs ys zs
1 2 0.440752 0.51346 0.5
2 1 0.499971 0.572093 0.5
3 1 0.526733 0.493167 0.5
4 1 0.584676 0.43323 0.5
5 1 0.508638 0.467333 0.5
6 1 0.513969 0.502724 0.5
7 1 0.515136 0.489023 0.5
ITEM: TIMESTEP
390
ITEM: NUMBER OF ATOMS
7
ITEM: BOX BOUNDS ff ff pp
-6.0000000000000000e+00 6.0000000000000000e+00
-6.0000000000000000e+00 6.0000000000000000e+00
-6.0000000000000000e+00 6.0000000000000000e+00
ITEM: ATOMS id type xs ys zs
1 2 0.440754 0.513461 0.5
2 1 0.499972 0.572093 0.5
3 1 0.526732 0.493167 0.5
4 1 0.584676 0.433231 0.5
5 1 0.508637 0.46733 0.5
6 1 0.513969 0.502724 0.5
7 1 0.515136 0.489021 0.5
ITEM: TIMESTEP
400
ITEM: NUMBER OF ATOMS
7
ITEM: BOX BOUNDS ff ff pp
-6.0000000000000000e+00 6.0000000000000000e+00
-6.0000000000000000e+00 6.0000000000000000e+00
-6.0000000000000000e+00 6.0000000000000000e+00
ITEM: ATOMS id type xs ys zs
1 2 0.440754 0.513462 0.5
2 1 0.499973 0.572094 0.5
3 1 0.526732 0.493167 0.5
4 1 0.584677 0.433233 0.5
5 1 0.508636 0.467328 0.5
6 1 0.513968 0.502725 0.5
7 1 0.515136 0.489018 0.5
ITEM: TIMESTEP
410
ITEM: NUMBER OF ATOMS
7
ITEM: BOX BOUNDS ff ff pp
-6.0000000000000000e+00 6.0000000000000000e+00
-6.0000000000000000e+00 6.0000000000000000e+00
-6.0000000000000000e+00 6.0000000000000000e+00
ITEM: ATOMS id type xs ys zs
1 2 0.440755 0.513462 0.5
2 1 0.499974 0.572094 0.5
3 1 0.526731 0.493167 0.5
4 1 0.584677 0.433234 0.5
5 1 0.508636 0.467327 0.5
6 1 0.513968 0.502725 0.5
7 1 0.515136 0.489017 0.5
ITEM: TIMESTEP
420
ITEM: NUMBER OF ATOMS
7
ITEM: BOX BOUNDS ff ff pp
-6.0000000000000000e+00 6.0000000000000000e+00
-6.0000000000000000e+00 6.0000000000000000e+00
-6.0000000000000000e+00 6.0000000000000000e+00
ITEM: ATOMS id type xs ys zs
1 2 0.440756 0.513463 0.5
2 1 0.499975 0.572095 0.5
3 1 0.52673 0.493167 0.5
4 1 0.584678 0.433235 0.5
5 1 0.508635 0.467325 0.5
6 1 0.513967 0.502725 0.5
7 1 0.515136 0.489014 0.5
ITEM: TIMESTEP
430
ITEM: NUMBER OF ATOMS
7
ITEM: BOX BOUNDS ff ff pp
-6.0000000000000000e+00 6.0000000000000000e+00
-6.0000000000000000e+00 6.0000000000000000e+00
-6.0000000000000000e+00 6.0000000000000000e+00
ITEM: ATOMS id type xs ys zs
1 2 0.440758 0.513464 0.5
2 1 0.499977 0.572095 0.5
3 1 0.52673 0.493167 0.5
4 1 0.584679 0.433237 0.5
5 1 0.508634 0.467322 0.5
6 1 0.513967 0.502725 0.5
7 1 0.515136 0.489011 0.5
ITEM: TIMESTEP
440
ITEM: NUMBER OF ATOMS
7
ITEM: BOX BOUNDS ff ff pp
-6.0000000000000000e+00 6.0000000000000000e+00
-6.0000000000000000e+00 6.0000000000000000e+00
-6.0000000000000000e+00 6.0000000000000000e+00
ITEM: ATOMS id type xs ys zs
1 2 0.440758 0.513464 0.5
2 1 0.499977 0.572096 0.5
3 1 0.526729 0.493167 0.5
4 1 0.584679 0.433238 0.5
5 1 0.508633 0.467321 0.5
6 1 0.513966 0.502725 0.5
7 1 0.515136 0.48901 0.5
ITEM: TIMESTEP
450
ITEM: NUMBER OF ATOMS
7
ITEM: BOX BOUNDS ff ff pp
-6.0000000000000000e+00 6.0000000000000000e+00
-6.0000000000000000e+00 6.0000000000000000e+00
-6.0000000000000000e+00 6.0000000000000000e+00
ITEM: ATOMS id type xs ys zs
1 2 0.440759 0.513465 0.5
2 1 0.499979 0.572096 0.5
3 1 0.526728 0.493167 0.5
4 1 0.58468 0.433239 0.5
5 1 0.508632 0.467319 0.5
6 1 0.513966 0.502726 0.5
7 1 0.515136 0.489008 0.5
ITEM: TIMESTEP
460
ITEM: NUMBER OF ATOMS
7
ITEM: BOX BOUNDS ff ff pp
-6.0000000000000000e+00 6.0000000000000000e+00
-6.0000000000000000e+00 6.0000000000000000e+00
-6.0000000000000000e+00 6.0000000000000000e+00
ITEM: ATOMS id type xs ys zs
1 2 0.44076 0.513466 0.5
2 1 0.49998 0.572097 0.5
3 1 0.526727 0.493167 0.5
4 1 0.584681 0.43324 0.5
5 1 0.508632 0.467317 0.5
6 1 0.513965 0.502726 0.5
7 1 0.515136 0.489005 0.5
ITEM: TIMESTEP
470
ITEM: NUMBER OF ATOMS
7
ITEM: BOX BOUNDS ff ff pp
-6.0000000000000000e+00 6.0000000000000000e+00
-6.0000000000000000e+00 6.0000000000000000e+00
-6.0000000000000000e+00 6.0000000000000000e+00
ITEM: ATOMS id type xs ys zs
1 2 0.440761 0.513467 0.5
2 1 0.499981 0.572098 0.5
3 1 0.526727 0.493167 0.5
4 1 0.584681 0.433241 0.5
5 1 0.508631 0.467315 0.5
6 1 0.513965 0.502726 0.5
7 1 0.515136 0.489004 0.5
ITEM: TIMESTEP
480
ITEM: NUMBER OF ATOMS
7
ITEM: BOX BOUNDS ff ff pp
-6.0000000000000000e+00 6.0000000000000000e+00
-6.0000000000000000e+00 6.0000000000000000e+00
-6.0000000000000000e+00 6.0000000000000000e+00
ITEM: ATOMS id type xs ys zs
1 2 0.440762 0.513467 0.5
2 1 0.499982 0.572098 0.5
3 1 0.526726 0.493166 0.5
4 1 0.584682 0.433243 0.5
5 1 0.50863 0.467313 0.5
6 1 0.513965 0.502726 0.5
7 1 0.515136 0.489001 0.5
ITEM: TIMESTEP
490
ITEM: NUMBER OF ATOMS
7
ITEM: BOX BOUNDS ff ff pp
-6.0000000000000000e+00 6.0000000000000000e+00
-6.0000000000000000e+00 6.0000000000000000e+00
-6.0000000000000000e+00 6.0000000000000000e+00
ITEM: ATOMS id type xs ys zs
1 2 0.440763 0.513468 0.5
2 1 0.499983 0.572099 0.5
3 1 0.526726 0.493166 0.5
4 1 0.584682 0.433244 0.5
5 1 0.508629 0.467312 0.5
6 1 0.513964 0.502727 0.5
7 1 0.515136 0.489 0.5
ITEM: TIMESTEP
500
ITEM: NUMBER OF ATOMS
7
ITEM: BOX BOUNDS ff ff pp
-6.0000000000000000e+00 6.0000000000000000e+00
-6.0000000000000000e+00 6.0000000000000000e+00
-6.0000000000000000e+00 6.0000000000000000e+00
ITEM: ATOMS id type xs ys zs
1 2 0.440764 0.513469 0.5
2 1 0.499984 0.572099 0.5
3 1 0.526725 0.493166 0.5
4 1 0.584683 0.433245 0.5
5 1 0.508629 0.46731 0.5
6 1 0.513964 0.502727 0.5
7 1 0.515136 0.488998 0.5
ITEM: TIMESTEP
510
ITEM: NUMBER OF ATOMS
7
ITEM: BOX BOUNDS ff ff pp
-6.0000000000000000e+00 6.0000000000000000e+00
-6.0000000000000000e+00 6.0000000000000000e+00
-6.0000000000000000e+00 6.0000000000000000e+00
ITEM: ATOMS id type xs ys zs
1 2 0.440765 0.513469 0.5
2 1 0.499985 0.5721 0.5
3 1 0.526724 0.493166 0.5
4 1 0.584684 0.433247 0.5
5 1 0.508628 0.467307 0.5
6 1 0.513963 0.502727 0.5
7 1 0.515136 0.488995 0.5
ITEM: TIMESTEP
520
ITEM: NUMBER OF ATOMS
7
ITEM: BOX BOUNDS ff ff pp
-6.0000000000000000e+00 6.0000000000000000e+00
-6.0000000000000000e+00 6.0000000000000000e+00
-6.0000000000000000e+00 6.0000000000000000e+00
ITEM: ATOMS id type xs ys zs
1 2 0.440766 0.51347 0.5
2 1 0.499986 0.5721 0.5
3 1 0.526723 0.493166 0.5
4 1 0.584684 0.433247 0.5
5 1 0.508627 0.467306 0.5
6 1 0.513963 0.502727 0.5
7 1 0.515136 0.488993 0.5
ITEM: TIMESTEP
530
ITEM: NUMBER OF ATOMS
7
ITEM: BOX BOUNDS ff ff pp
-6.0000000000000000e+00 6.0000000000000000e+00
-6.0000000000000000e+00 6.0000000000000000e+00
-6.0000000000000000e+00 6.0000000000000000e+00
ITEM: ATOMS id type xs ys zs
1 2 0.440767 0.513471 0.5
2 1 0.499987 0.572101 0.5
3 1 0.526723 0.493166 0.5
4 1 0.584685 0.433249 0.5
5 1 0.508626 0.467304 0.5
6 1 0.513962 0.502727 0.5
7 1 0.515136 0.488991 0.5
ITEM: TIMESTEP
540
ITEM: NUMBER OF ATOMS
7
ITEM: BOX BOUNDS ff ff pp
-6.0000000000000000e+00 6.0000000000000000e+00
-6.0000000000000000e+00 6.0000000000000000e+00
-6.0000000000000000e+00 6.0000000000000000e+00
ITEM: ATOMS id type xs ys zs
1 2 0.440768 0.513471 0.5
2 1 0.499989 0.572101 0.5
3 1 0.526722 0.493166 0.5
4 1 0.584685 0.43325 0.5
5 1 0.508625 0.467302 0.5
6 1 0.513962 0.502728 0.5
7 1 0.515136 0.488989 0.5
ITEM: TIMESTEP
550
ITEM: NUMBER OF ATOMS
7
ITEM: BOX BOUNDS ff ff pp
-6.0000000000000000e+00 6.0000000000000000e+00
-6.0000000000000000e+00 6.0000000000000000e+00
-6.0000000000000000e+00 6.0000000000000000e+00
ITEM: ATOMS id type xs ys zs
1 2 0.440769 0.513472 0.5
2 1 0.49999 0.572102 0.5
3 1 0.526721 0.493166 0.5
4 1 0.584686 0.433252 0.5
5 1 0.508624 0.4673 0.5
6 1 0.513961 0.502728 0.5
7 1 0.515136 0.488986 0.5
ITEM: TIMESTEP
560
ITEM: NUMBER OF ATOMS
7
ITEM: BOX BOUNDS ff ff pp
-6.0000000000000000e+00 6.0000000000000000e+00
-6.0000000000000000e+00 6.0000000000000000e+00
-6.0000000000000000e+00 6.0000000000000000e+00
ITEM: ATOMS id type xs ys zs
1 2 0.44077 0.513473 0.5
2 1 0.499991 0.572102 0.5
3 1 0.526721 0.493166 0.5
4 1 0.584686 0.433252 0.5
5 1 0.508624 0.467299 0.5
6 1 0.513961 0.502728 0.5
7 1 0.515136 0.488985 0.5
ITEM: TIMESTEP
570
ITEM: NUMBER OF ATOMS
7
ITEM: BOX BOUNDS ff ff pp
-6.0000000000000000e+00 6.0000000000000000e+00
-6.0000000000000000e+00 6.0000000000000000e+00
-6.0000000000000000e+00 6.0000000000000000e+00
ITEM: ATOMS id type xs ys zs
1 2 0.440771 0.513474 0.5
2 1 0.499992 0.572103 0.5
3 1 0.52672 0.493166 0.5
4 1 0.584687 0.433254 0.5
5 1 0.508623 0.467296 0.5
6 1 0.51396 0.502728 0.5
7 1 0.515136 0.488982 0.5
ITEM: TIMESTEP
580
ITEM: NUMBER OF ATOMS
7
ITEM: BOX BOUNDS ff ff pp
-6.0000000000000000e+00 6.0000000000000000e+00
-6.0000000000000000e+00 6.0000000000000000e+00
-6.0000000000000000e+00 6.0000000000000000e+00
ITEM: ATOMS id type xs ys zs
1 2 0.440772 0.513474 0.5
2 1 0.499993 0.572104 0.5
3 1 0.526719 0.493166 0.5
4 1 0.584688 0.433255 0.5
5 1 0.508622 0.467295 0.5
6 1 0.51396 0.502729 0.5
7 1 0.515136 0.48898 0.5
ITEM: TIMESTEP
590
ITEM: NUMBER OF ATOMS
7
ITEM: BOX BOUNDS ff ff pp
-6.0000000000000000e+00 6.0000000000000000e+00
-6.0000000000000000e+00 6.0000000000000000e+00
-6.0000000000000000e+00 6.0000000000000000e+00
ITEM: ATOMS id type xs ys zs
1 2 0.440773 0.513475 0.5
2 1 0.499994 0.572104 0.5
3 1 0.526719 0.493166 0.5
4 1 0.584688 0.433256 0.5
5 1 0.508622 0.467293 0.5
6 1 0.51396 0.502729 0.5
7 1 0.515136 0.488978 0.5
ITEM: TIMESTEP
600
ITEM: NUMBER OF ATOMS
7
ITEM: BOX BOUNDS ff ff pp
-6.0000000000000000e+00 6.0000000000000000e+00
-6.0000000000000000e+00 6.0000000000000000e+00
-6.0000000000000000e+00 6.0000000000000000e+00
ITEM: ATOMS id type xs ys zs
1 2 0.440774 0.513476 0.5
2 1 0.499995 0.572105 0.5
3 1 0.526718 0.493166 0.5
4 1 0.584689 0.433258 0.5
5 1 0.508621 0.467291 0.5
6 1 0.513959 0.502729 0.5
7 1 0.515136 0.488976 0.5
ITEM: TIMESTEP
610
ITEM: NUMBER OF ATOMS
7
ITEM: BOX BOUNDS ff ff pp
-6.0000000000000000e+00 6.0000000000000000e+00
-6.0000000000000000e+00 6.0000000000000000e+00
-6.0000000000000000e+00 6.0000000000000000e+00
ITEM: ATOMS id type xs ys zs
1 2 0.440775 0.513476 0.5
2 1 0.499996 0.572105 0.5
3 1 0.526717 0.493166 0.5
4 1 0.584689 0.433259 0.5
5 1 0.50862 0.467289 0.5
6 1 0.513959 0.502729 0.5
7 1 0.515137 0.488974 0.5
ITEM: TIMESTEP
620
ITEM: NUMBER OF ATOMS
7
ITEM: BOX BOUNDS ff ff pp
-6.0000000000000000e+00 6.0000000000000000e+00
-6.0000000000000000e+00 6.0000000000000000e+00
-6.0000000000000000e+00 6.0000000000000000e+00
ITEM: ATOMS id type xs ys zs
1 2 0.440775 0.513477 0.5
2 1 0.499997 0.572106 0.5
3 1 0.526716 0.493166 0.5
4 1 0.58469 0.43326 0.5
5 1 0.508619 0.467288 0.5
6 1 0.513958 0.502729 0.5
7 1 0.515137 0.488972 0.5
ITEM: TIMESTEP
630
ITEM: NUMBER OF ATOMS
7
ITEM: BOX BOUNDS ff ff pp
-6.0000000000000000e+00 6.0000000000000000e+00
-6.0000000000000000e+00 6.0000000000000000e+00
-6.0000000000000000e+00 6.0000000000000000e+00
ITEM: ATOMS id type xs ys zs
1 2 0.440777 0.513478 0.5
2 1 0.499999 0.572106 0.5
3 1 0.526716 0.493165 0.5
4 1 0.584691 0.433261 0.5
5 1 0.508618 0.467285 0.5
6 1 0.513958 0.50273 0.5
7 1 0.515137 0.48897 0.5
ITEM: TIMESTEP
640
ITEM: NUMBER OF ATOMS
7
ITEM: BOX BOUNDS ff ff pp
-6.0000000000000000e+00 6.0000000000000000e+00
-6.0000000000000000e+00 6.0000000000000000e+00
-6.0000000000000000e+00 6.0000000000000000e+00
ITEM: ATOMS id type xs ys zs
1 2 0.440777 0.513478 0.5
2 1 0.5 0.572107 0.5
3 1 0.526715 0.493165 0.5
4 1 0.584691 0.433262 0.5
5 1 0.508618 0.467284 0.5
6 1 0.513957 0.50273 0.5
7 1 0.515137 0.488968 0.5
ITEM: TIMESTEP
650
ITEM: NUMBER OF ATOMS
7
ITEM: BOX BOUNDS ff ff pp
-6.0000000000000000e+00 6.0000000000000000e+00
-6.0000000000000000e+00 6.0000000000000000e+00
-6.0000000000000000e+00 6.0000000000000000e+00
ITEM: ATOMS id type xs ys zs
1 2 0.440778 0.513479 0.5
2 1 0.500001 0.572107 0.5
3 1 0.526714 0.493165 0.5
4 1 0.584692 0.433263 0.5
5 1 0.508617 0.467282 0.5
6 1 0.513957 0.50273 0.5
7 1 0.515137 0.488966 0.5
ITEM: TIMESTEP
660
ITEM: NUMBER OF ATOMS
7
ITEM: BOX BOUNDS ff ff pp
-6.0000000000000000e+00 6.0000000000000000e+00
-6.0000000000000000e+00 6.0000000000000000e+00
-6.0000000000000000e+00 6.0000000000000000e+00
ITEM: ATOMS id type xs ys zs
1 2 0.440779 0.51348 0.5
2 1 0.500002 0.572108 0.5
3 1 0.526714 0.493165 0.5
4 1 0.584692 0.433265 0.5
5 1 0.508616 0.46728 0.5
6 1 0.513956 0.50273 0.5
7 1 0.515137 0.488964 0.5
ITEM: TIMESTEP
670
ITEM: NUMBER OF ATOMS
7
ITEM: BOX BOUNDS ff ff pp
-6.0000000000000000e+00 6.0000000000000000e+00
-6.0000000000000000e+00 6.0000000000000000e+00
-6.0000000000000000e+00 6.0000000000000000e+00
ITEM: ATOMS id type xs ys zs
1 2 0.440781 0.513481 0.5
2 1 0.500003 0.572109 0.5
3 1 0.526713 0.493165 0.5
4 1 0.584693 0.433266 0.5
5 1 0.508615 0.467277 0.5
6 1 0.513956 0.502731 0.5
7 1 0.515137 0.488961 0.5
ITEM: TIMESTEP
680
ITEM: NUMBER OF ATOMS
7
ITEM: BOX BOUNDS ff ff pp
-6.0000000000000000e+00 6.0000000000000000e+00
-6.0000000000000000e+00 6.0000000000000000e+00
-6.0000000000000000e+00 6.0000000000000000e+00
ITEM: ATOMS id type xs ys zs
1 2 0.440781 0.513481 0.5
2 1 0.500004 0.572109 0.5
3 1 0.526712 0.493165 0.5
4 1 0.584694 0.433267 0.5
5 1 0.508614 0.467276 0.5
6 1 0.513956 0.502731 0.5
7 1 0.515137 0.48896 0.5
ITEM: TIMESTEP
690
ITEM: NUMBER OF ATOMS
7
ITEM: BOX BOUNDS ff ff pp
-6.0000000000000000e+00 6.0000000000000000e+00
-6.0000000000000000e+00 6.0000000000000000e+00
-6.0000000000000000e+00 6.0000000000000000e+00
ITEM: ATOMS id type xs ys zs
1 2 0.440782 0.513482 0.5
2 1 0.500005 0.572109 0.5
3 1 0.526712 0.493165 0.5
4 1 0.584694 0.433268 0.5
5 1 0.508614 0.467275 0.5
6 1 0.513955 0.502731 0.5
7 1 0.515137 0.488958 0.5
ITEM: TIMESTEP
700
ITEM: NUMBER OF ATOMS
7
ITEM: BOX BOUNDS ff ff pp
-6.0000000000000000e+00 6.0000000000000000e+00
-6.0000000000000000e+00 6.0000000000000000e+00
-6.0000000000000000e+00 6.0000000000000000e+00
ITEM: ATOMS id type xs ys zs
1 2 0.440783 0.513483 0.5
2 1 0.500007 0.57211 0.5
3 1 0.526711 0.493165 0.5
4 1 0.584695 0.43327 0.5
5 1 0.508613 0.467272 0.5
6 1 0.513955 0.502731 0.5
7 1 0.515137 0.488955 0.5
ITEM: TIMESTEP
710
ITEM: NUMBER OF ATOMS
7
ITEM: BOX BOUNDS ff ff pp
-6.0000000000000000e+00 6.0000000000000000e+00
-6.0000000000000000e+00 6.0000000000000000e+00
-6.0000000000000000e+00 6.0000000000000000e+00