ITEM: TIMESTEP
0
ITEM: NUMBER OF ATOMS
7
ITEM: BOX BOUNDS ff ff pp
-6.0000000000000000e+00 6.0000000000000000e+00
-6.0000000000000000e+00 6.0000000000000000e+00
-6.0000000000000000e+00 6.0000000000000000e+00
ITEM: ATOMS id type xs ys zs
1 2 0.463903 0.509422 0.5
2 1 0.524575 0.544109 0.5
3 1 0.527659 0.474229 0.5
4 1 0.573132 0.415346 0.5
5 1 0.517518 0.457198 0.5
6 1 0.519631 0.48491 0.5
7 1 0.525515 0.476424 0.5
ITEM: TIMESTEP
10
ITEM: NUMBER OF ATOMS
7
ITEM: BOX BOUNDS ff ff pp
-6.0000000000000000e+00 6.0000000000000000e+00
-6.0000000000000000e+00 6.0000000000000000e+00
-6.0000000000000000e+00 6.0000000000000000e+00
ITEM: ATOMS id type xs ys zs
1 2 0.454484 0.511646 0.5
2 1 0.52782 0.554192 0.5
3 1 0.526353 0.469472 0.5
4 1 0.582113 0.406883 0.5
5 1 0.516088 0.458136 0.5
6 1 0.517251 0.483357 0.5
7 1 0.526635 0.480049 0.5
ITEM: TIMESTEP
20
ITEM: NUMBER OF ATOMS
7
ITEM: BOX BOUNDS ff ff pp
-6.0000000000000000e+00 6.0000000000000000e+00
-6.0000000000000000e+00 6.0000000000000000e+00
-6.0000000000000000e+00 6.0000000000000000e+00
ITEM: ATOMS id type xs ys zs
1 2 0.453946 0.512394 0.5
2 1 0.527091 0.552556 0.5
3 1 0.526031 0.469163 0.5
4 1 0.582106 0.407319 0.5
5 1 0.517426 0.460158 0.5
6 1 0.517491 0.482451 0.5
7 1 0.525797 0.481203 0.5
ITEM: TIMESTEP
30
ITEM: NUMBER OF ATOMS
7
ITEM: BOX BOUNDS ff ff pp
-6.0000000000000000e+00 6.0000000000000000e+00
-6.0000000000000000e+00 6.0000000000000000e+00
-6.0000000000000000e+00 6.0000000000000000e+00
ITEM: ATOMS id type xs ys zs
1 2 0.45399 0.512358 0.5
2 1 0.52701 0.552527 0.5
3 1 0.52606 0.469123 0.5
4 1 0.582041 0.407401 0.5
5 1 0.517479 0.460234 0.5
6 1 0.517367 0.482481 0.5
7 1 0.525815 0.481342 0.5
ITEM: TIMESTEP
40
ITEM: NUMBER OF ATOMS
7
ITEM: BOX BOUNDS ff ff pp
-6.0000000000000000e+00 6.0000000000000000e+00
-6.0000000000000000e+00 6.0000000000000000e+00
-6.0000000000000000e+00 6.0000000000000000e+00
ITEM: ATOMS id type xs ys zs
1 2 0.45392 0.512296 0.5
2 1 0.526868 0.552588 0.5
3 1 0.526016 0.469234 0.5
4 1 0.582005 0.407508 0.5
5 1 0.517563 0.460416 0.5
6 1 0.517183 0.482504 0.5
7 1 0.525875 0.481505 0.5
ITEM: TIMESTEP
50
ITEM: NUMBER OF ATOMS
7
ITEM: BOX BOUNDS ff ff pp
-6.0000000000000000e+00 6.0000000000000000e+00
-6.0000000000000000e+00 6.0000000000000000e+00
-6.0000000000000000e+00 6.0000000000000000e+00
ITEM: ATOMS id type xs ys zs
1 2 0.453834 0.512258 0.5
2 1 0.526706 0.552682 0.5
3 1 0.525982 0.469346 0.5
4 1 0.58199 0.407624 0.5
5 1 0.517594 0.460554 0.5
6 1 0.517089 0.482574 0.5
7 1 0.525879 0.481638 0.5
ITEM: TIMESTEP
60
ITEM: NUMBER OF ATOMS
7
ITEM: BOX BOUNDS ff ff pp
-6.0000000000000000e+00 6.0000000000000000e+00
-6.0000000000000000e+00 6.0000000000000000e+00
-6.0000000000000000e+00 6.0000000000000000e+00
ITEM: ATOMS id type xs ys zs
1 2 0.453802 0.512248 0.5
2 1 0.52665 0.552718 0.5
3 1 0.525976 0.469382 0.5
4 1 0.581987 0.407664 0.5
5 1 0.517599 0.460593 0.5
6 1 0.517069 0.482601 0.5
7 1 0.525873 0.481681 0.5
ITEM: TIMESTEP
70
ITEM: NUMBER OF ATOMS
7
ITEM: BOX BOUNDS ff ff pp
-6.0000000000000000e+00 6.0000000000000000e+00
-6.0000000000000000e+00 6.0000000000000000e+00
-6.0000000000000000e+00 6.0000000000000000e+00
ITEM: ATOMS id type xs ys zs
1 2 0.453738 0.512232 0.5
2 1 0.526536 0.55279 0.5
3 1 0.525967 0.469457 0.5
4 1 0.581983 0.407741 0.5
5 1 0.517602 0.460669 0.5
6 1 0.517036 0.482659 0.5
7 1 0.525854 0.481762 0.5
ITEM: TIMESTEP
80
ITEM: NUMBER OF ATOMS
7
ITEM: BOX BOUNDS ff ff pp
-6.0000000000000000e+00 6.0000000000000000e+00
-6.0000000000000000e+00 6.0000000000000000e+00
-6.0000000000000000e+00 6.0000000000000000e+00
ITEM: ATOMS id type xs ys zs
1 2 0.453653 0.512214 0.5
2 1 0.526388 0.552885 0.5
3 1 0.525961 0.469553 0.5
4 1 0.581979 0.407838 0.5
5 1 0.517601 0.460762 0.5
6 1 0.517004 0.482736 0.5
7 1 0.525823 0.481864 0.5
ITEM: TIMESTEP
90
ITEM: NUMBER OF ATOMS
7
ITEM: BOX BOUNDS ff ff pp
-6.0000000000000000e+00 6.0000000000000000e+00
-6.0000000000000000e+00 6.0000000000000000e+00
-6.0000000000000000e+00 6.0000000000000000e+00
ITEM: ATOMS id type xs ys zs
1 2 0.453637 0.512211 0.5
2 1 0.52636 0.552902 0.5
3 1 0.52596 0.469571 0.5
4 1 0.581978 0.407855 0.5
5 1 0.517601 0.460779 0.5
6 1 0.516999 0.48275 0.5
7 1 0.525817 0.481882 0.5
ITEM: TIMESTEP
100
ITEM: NUMBER OF ATOMS
7
ITEM: BOX BOUNDS ff ff pp
-6.0000000000000000e+00 6.0000000000000000e+00
-6.0000000000000000e+00 6.0000000000000000e+00
-6.0000000000000000e+00 6.0000000000000000e+00
ITEM: ATOMS id type xs ys zs
1 2 0.453601 0.512203 0.5
2 1 0.526297 0.552943 0.5
3 1 0.525959 0.469612 0.5
4 1 0.581976 0.407895 0.5
5 1 0.5176 0.460817 0.5
6 1 0.516988 0.482783 0.5
7 1 0.525803 0.481924 0.5
ITEM: TIMESTEP
110
ITEM: NUMBER OF ATOMS
7
ITEM: BOX BOUNDS ff ff pp
-6.0000000000000000e+00 6.0000000000000000e+00
-6.0000000000000000e+00 6.0000000000000000e+00
-6.0000000000000000e+00 6.0000000000000000e+00
ITEM: ATOMS id type xs ys zs
1 2 0.453547 0.512193 0.5
2 1 0.526203 0.553003 0.5
3 1 0.52596 0.469673 0.5
4 1 0.581973 0.407952 0.5
5 1 0.517597 0.460873 0.5
6 1 0.516972 0.482833 0.5
7 1 0.525781 0.481987 0.5
ITEM: TIMESTEP
120
ITEM: NUMBER OF ATOMS
7
ITEM: BOX BOUNDS ff ff pp
-6.0000000000000000e+00 6.0000000000000000e+00
-6.0000000000000000e+00 6.0000000000000000e+00
-6.0000000000000000e+00 6.0000000000000000e+00
ITEM: ATOMS id type xs ys zs
1 2 0.453529 0.512189 0.5
2 1 0.526173 0.553023 0.5
3 1 0.52596 0.469693 0.5
4 1 0.581972 0.407971 0.5
5 1 0.517597 0.460891 0.5
6 1 0.516968 0.482849 0.5
7 1 0.525773 0.482007 0.5
ITEM: TIMESTEP
130
ITEM: NUMBER OF ATOMS
7
ITEM: BOX BOUNDS ff ff pp
-6.0000000000000000e+00 6.0000000000000000e+00
-6.0000000000000000e+00 6.0000000000000000e+00
-6.0000000000000000e+00 6.0000000000000000e+00
ITEM: ATOMS id type xs ys zs
1 2 0.453513 0.512186 0.5
2 1 0.526145 0.553041 0.5
3 1 0.52596 0.469711 0.5
4 1 0.581971 0.407988 0.5
5 1 0.517596 0.460907 0.5
6 1 0.516964 0.482863 0.5
7 1 0.525767 0.482026 0.5
ITEM: TIMESTEP
140
ITEM: NUMBER OF ATOMS
7
ITEM: BOX BOUNDS ff ff pp
-6.0000000000000000e+00 6.0000000000000000e+00
-6.0000000000000000e+00 6.0000000000000000e+00
-6.0000000000000000e+00 6.0000000000000000e+00
ITEM: ATOMS id type xs ys zs
1 2 0.453493 0.512183 0.5
2 1 0.526109 0.553064 0.5
3 1 0.525961 0.469734 0.5
4 1 0.581969 0.408009 0.5
5 1 0.517594 0.460928 0.5
6 1 0.516959 0.482882 0.5
7 1 0.525758 0.482049 0.5
ITEM: TIMESTEP
150
ITEM: NUMBER OF ATOMS
7
ITEM: BOX BOUNDS ff ff pp
-6.0000000000000000e+00 6.0000000000000000e+00
-6.0000000000000000e+00 6.0000000000000000e+00
-6.0000000000000000e+00 6.0000000000000000e+00
ITEM: ATOMS id type xs ys zs
1 2 0.453487 0.512181 0.5
2 1 0.526098 0.553071 0.5
3 1 0.525961 0.469741 0.5
4 1 0.581969 0.408015 0.5
5 1 0.517594 0.460934 0.5
6 1 0.516957 0.482888 0.5
7 1 0.525755 0.482056 0.5
ITEM: TIMESTEP
160
ITEM: NUMBER OF ATOMS
7
ITEM: BOX BOUNDS ff ff pp
-6.0000000000000000e+00 6.0000000000000000e+00
-6.0000000000000000e+00 6.0000000000000000e+00
-6.0000000000000000e+00 6.0000000000000000e+00
ITEM: ATOMS id type xs ys zs
1 2 0.45348 0.51218 0.5
2 1 0.526087 0.553079 0.5
3 1 0.525962 0.469748 0.5
4 1 0.581969 0.408022 0.5
5 1 0.517593 0.460941 0.5
6 1 0.516956 0.482894 0.5
7 1 0.525752 0.482064 0.5
ITEM: TIMESTEP
170
ITEM: NUMBER OF ATOMS
7
ITEM: BOX BOUNDS ff ff pp
-6.0000000000000000e+00 6.0000000000000000e+00
-6.0000000000000000e+00 6.0000000000000000e+00
-6.0000000000000000e+00 6.0000000000000000e+00
ITEM: ATOMS id type xs ys zs
1 2 0.453476 0.51218 0.5
2 1 0.52608 0.553083 0.5
3 1 0.525962 0.469752 0.5
4 1 0.581968 0.408026 0.5
5 1 0.517593 0.460944 0.5
6 1 0.516955 0.482897 0.5
7 1 0.52575 0.482068 0.5
ITEM: TIMESTEP
180
ITEM: NUMBER OF ATOMS
7
ITEM: BOX BOUNDS ff ff pp
-6.0000000000000000e+00 6.0000000000000000e+00
-6.0000000000000000e+00 6.0000000000000000e+00
-6.0000000000000000e+00 6.0000000000000000e+00
ITEM: ATOMS id type xs ys zs
1 2 0.453471 0.512179 0.5
2 1 0.526071 0.553089 0.5
3 1 0.525962 0.469758 0.5
4 1 0.581968 0.408031 0.5
5 1 0.517593 0.46095 0.5
6 1 0.516954 0.482902 0.5
7 1 0.525748 0.482074 0.5
ITEM: TIMESTEP
190
ITEM: NUMBER OF ATOMS
7
ITEM: BOX BOUNDS ff ff pp
-6.0000000000000000e+00 6.0000000000000000e+00
-6.0000000000000000e+00 6.0000000000000000e+00
-6.0000000000000000e+00 6.0000000000000000e+00
ITEM: ATOMS id type xs ys zs
1 2 0.45347 0.512179 0.5
2 1 0.526069 0.55309 0.5
3 1 0.525962 0.46976 0.5
4 1 0.581968 0.408033 0.5
5 1 0.517593 0.460951 0.5
6 1 0.516954 0.482904 0.5
7 1 0.525747 0.482075 0.5
ITEM: TIMESTEP
200
ITEM: NUMBER OF ATOMS
7
ITEM: BOX BOUNDS ff ff pp
-6.0000000000000000e+00 6.0000000000000000e+00
-6.0000000000000000e+00 6.0000000000000000e+00
-6.0000000000000000e+00 6.0000000000000000e+00
ITEM: ATOMS id type xs ys zs
1 2 0.453467 0.512178 0.5
2 1 0.526064 0.553093 0.5
3 1 0.525963 0.469763 0.5
4 1 0.581967 0.408035 0.5
5 1 0.517593 0.460954 0.5
6 1 0.516954 0.482906 0.5
7 1 0.525746 0.482078 0.5
ITEM: TIMESTEP
210
ITEM: NUMBER OF ATOMS
7
ITEM: BOX BOUNDS ff ff pp
-6.0000000000000000e+00 6.0000000000000000e+00
-6.0000000000000000e+00 6.0000000000000000e+00
-6.0000000000000000e+00 6.0000000000000000e+00
ITEM: ATOMS id type xs ys zs
1 2 0.453463 0.512177 0.5
2 1 0.526058 0.553097 0.5
3 1 0.525964 0.469767 0.5
4 1 0.581966 0.408037 0.5
5 1 0.517593 0.460957 0.5
6 1 0.516954 0.482909 0.5
7 1 0.525745 0.482082 0.5
ITEM: TIMESTEP
220
ITEM: NUMBER OF ATOMS
7
ITEM: BOX BOUNDS ff ff pp
-6.0000000000000000e+00 6.0000000000000000e+00
-6.0000000000000000e+00 6.0000000000000000e+00
-6.0000000000000000e+00 6.0000000000000000e+00
ITEM: ATOMS id type xs ys zs
1 2 0.453463 0.512177 0.5
2 1 0.526056 0.553098 0.5
3 1 0.525964 0.469768 0.5
4 1 0.581966 0.408037 0.5
5 1 0.517593 0.460958 0.5
6 1 0.516954 0.48291 0.5
7 1 0.525744 0.482083 0.5
ITEM: TIMESTEP
230
ITEM: NUMBER OF ATOMS
7
ITEM: BOX BOUNDS ff ff pp
-6.0000000000000000e+00 6.0000000000000000e+00
-6.0000000000000000e+00 6.0000000000000000e+00
-6.0000000000000000e+00 6.0000000000000000e+00
ITEM: ATOMS id type xs ys zs
1 2 0.453461 0.512176 0.5
2 1 0.526054 0.5531 0.5
3 1 0.525965 0.469769 0.5
4 1 0.581965 0.408038 0.5
5 1 0.517593 0.460959 0.5
6 1 0.516954 0.482911 0.5
7 1 0.525744 0.482084 0.5
ITEM: TIMESTEP
240
ITEM: NUMBER OF ATOMS
7
ITEM: BOX BOUNDS ff ff pp
-6.0000000000000000e+00 6.0000000000000000e+00
-6.0000000000000000e+00 6.0000000000000000e+00
-6.0000000000000000e+00 6.0000000000000000e+00
ITEM: ATOMS id type xs ys zs
1 2 0.45346 0.512175 0.5
2 1 0.526051 0.553101 0.5
3 1 0.525966 0.469771 0.5
4 1 0.581964 0.408037 0.5
5 1 0.517593 0.46096 0.5
6 1 0.516955 0.482912 0.5
7 1 0.525744 0.482086 0.5
ITEM: TIMESTEP
250
ITEM: NUMBER OF ATOMS
7
ITEM: BOX BOUNDS ff ff pp
-6.0000000000000000e+00 6.0000000000000000e+00
-6.0000000000000000e+00 6.0000000000000000e+00
-6.0000000000000000e+00 6.0000000000000000e+00
ITEM: ATOMS id type xs ys zs
1 2 0.453459 0.512174 0.5
2 1 0.526049 0.553103 0.5
3 1 0.525967 0.469772 0.5
4 1 0.581963 0.408037 0.5
5 1 0.517593 0.460961 0.5
6 1 0.516955 0.482913 0.5
7 1 0.525743 0.482088 0.5
ITEM: TIMESTEP
260
ITEM: NUMBER OF ATOMS
7
ITEM: BOX BOUNDS ff ff pp
-6.0000000000000000e+00 6.0000000000000000e+00
-6.0000000000000000e+00 6.0000000000000000e+00
-6.0000000000000000e+00 6.0000000000000000e+00
ITEM: ATOMS id type xs ys zs
1 2 0.453458 0.512174 0.5
2 1 0.526047 0.553103 0.5
3 1 0.525968 0.469773 0.5
4 1 0.581962 0.408036 0.5
5 1 0.517594 0.460962 0.5
6 1 0.516956 0.482914 0.5
7 1 0.525743 0.482088 0.5
ITEM: TIMESTEP
270
ITEM: NUMBER OF ATOMS
7
ITEM: BOX BOUNDS ff ff pp
-6.0000000000000000e+00 6.0000000000000000e+00
-6.0000000000000000e+00 6.0000000000000000e+00
-6.0000000000000000e+00 6.0000000000000000e+00
ITEM: ATOMS id type xs ys zs
1 2 0.453457 0.512173 0.5
2 1 0.526046 0.553104 0.5
3 1 0.525969 0.469774 0.5
4 1 0.581961 0.408035 0.5
5 1 0.517594 0.460963 0.5
6 1 0.516956 0.482914 0.5
7 1 0.525743 0.482089 0.5
ITEM: TIMESTEP
280
ITEM: NUMBER OF ATOMS
7
ITEM: BOX BOUNDS ff ff pp
-6.0000000000000000e+00 6.0000000000000000e+00
-6.0000000000000000e+00 6.0000000000000000e+00
-6.0000000000000000e+00 6.0000000000000000e+00
ITEM: ATOMS id type xs ys zs
1 2 0.453457 0.512173 0.5
2 1 0.526044 0.553105 0.5
3 1 0.52597 0.469775 0.5
4 1 0.581961 0.408035 0.5
5 1 0.517594 0.460963 0.5
6 1 0.516957 0.482915 0.5
7 1 0.525743 0.48209 0.5
ITEM: TIMESTEP
290
ITEM: NUMBER OF ATOMS
7
ITEM: BOX BOUNDS ff ff pp
-6.0000000000000000e+00 6.0000000000000000e+00
-6.0000000000000000e+00 6.0000000000000000e+00
-6.0000000000000000e+00 6.0000000000000000e+00
ITEM: ATOMS id type xs ys zs
1 2 0.453456 0.512172 0.5
2 1 0.526043 0.553106 0.5
3 1 0.525971 0.469775 0.5
4 1 0.58196 0.408034 0.5
5 1 0.517595 0.460964 0.5
6 1 0.516958 0.482915 0.5
7 1 0.525743 0.482091 0.5
ITEM: TIMESTEP
300
ITEM: NUMBER OF ATOMS
7
ITEM: BOX BOUNDS ff ff pp
-6.0000000000000000e+00 6.0000000000000000e+00
-6.0000000000000000e+00 6.0000000000000000e+00
-6.0000000000000000e+00 6.0000000000000000e+00
ITEM: ATOMS id type xs ys zs
1 2 0.453455 0.512171 0.5
2 1 0.526041 0.553107 0.5
3 1 0.525972 0.469776 0.5
4 1 0.581959 0.408033 0.5
5 1 0.517595 0.460965 0.5
6 1 0.516959 0.482916 0.5
7 1 0.525743 0.482091 0.5
ITEM: TIMESTEP
310
ITEM: NUMBER OF ATOMS
7
ITEM: BOX BOUNDS ff ff pp
-6.0000000000000000e+00 6.0000000000000000e+00
-6.0000000000000000e+00 6.0000000000000000e+00
-6.0000000000000000e+00 6.0000000000000000e+00
ITEM: ATOMS id type xs ys zs
1 2 0.453455 0.512171 0.5
2 1 0.52604 0.553107 0.5
3 1 0.525973 0.469777 0.5
4 1 0.581958 0.408032 0.5
5 1 0.517595 0.460965 0.5
6 1 0.516959 0.482916 0.5
7 1 0.525743 0.482092 0.5
ITEM: TIMESTEP
320
ITEM: NUMBER OF ATOMS
7
ITEM: BOX BOUNDS ff ff pp
-6.0000000000000000e+00 6.0000000000000000e+00
-6.0000000000000000e+00 6.0000000000000000e+00
-6.0000000000000000e+00 6.0000000000000000e+00
ITEM: ATOMS id type xs ys zs
1 2 0.453454 0.51217 0.5
2 1 0.526039 0.553108 0.5
3 1 0.525974 0.469777 0.5
4 1 0.581957 0.408031 0.5
5 1 0.517596 0.460965 0.5
6 1 0.51696 0.482917 0.5
7 1 0.525743 0.482093 0.5
ITEM: TIMESTEP
330
ITEM: NUMBER OF ATOMS
7
ITEM: BOX BOUNDS ff ff pp
-6.0000000000000000e+00 6.0000000000000000e+00
-6.0000000000000000e+00 6.0000000000000000e+00
-6.0000000000000000e+00 6.0000000000000000e+00
ITEM: ATOMS id type xs ys zs
1 2 0.453454 0.51217 0.5
2 1 0.526037 0.553109 0.5
3 1 0.525975 0.469778 0.5
4 1 0.581956 0.40803 0.5
5 1 0.517596 0.460966 0.5
6 1 0.516961 0.482917 0.5
7 1 0.525743 0.482093 0.5
ITEM: TIMESTEP
340
ITEM: NUMBER OF ATOMS
7
ITEM: BOX BOUNDS ff ff pp
-6.0000000000000000e+00 6.0000000000000000e+00
-6.0000000000000000e+00 6.0000000000000000e+00
-6.0000000000000000e+00 6.0000000000000000e+00
ITEM: ATOMS id type xs ys zs
1 2 0.453453 0.512169 0.5
2 1 0.526036 0.553109 0.5
3 1 0.525976 0.469779 0.5
4 1 0.581955 0.408029 0.5
5 1 0.517596 0.460967 0.5
6 1 0.516961 0.482918 0.5
7 1 0.525743 0.482094 0.5
ITEM: TIMESTEP
350
ITEM: NUMBER OF ATOMS
7
ITEM: BOX BOUNDS ff ff pp
-6.0000000000000000e+00 6.0000000000000000e+00
-6.0000000000000000e+00 6.0000000000000000e+00
-6.0000000000000000e+00 6.0000000000000000e+00
ITEM: ATOMS id type xs ys zs
1 2 0.453453 0.512168 0.5
2 1 0.526035 0.55311 0.5
3 1 0.525977 0.469779 0.5
4 1 0.581955 0.408028 0.5
5 1 0.517597 0.460967 0.5
6 1 0.516962 0.482918 0.5
7 1 0.525743 0.482095 0.5
ITEM: TIMESTEP
360
ITEM: NUMBER OF ATOMS
7
ITEM: BOX BOUNDS ff ff pp
-6.0000000000000000e+00 6.0000000000000000e+00
-6.0000000000000000e+00 6.0000000000000000e+00
-6.0000000000000000e+00 6.0000000000000000e+00
ITEM: ATOMS id type xs ys zs
1 2 0.453452 0.512168 0.5
2 1 0.526034 0.553111 0.5
3 1 0.525978 0.46978 0.5
4 1 0.581953 0.408027 0.5
5 1 0.517597 0.460968 0.5
6 1 0.516963 0.482919 0.5
7 1 0.525743 0.482095 0.5
ITEM: TIMESTEP
370
ITEM: NUMBER OF ATOMS
7
ITEM: BOX BOUNDS ff ff pp
-6.0000000000000000e+00 6.0000000000000000e+00
-6.0000000000000000e+00 6.0000000000000000e+00
-6.0000000000000000e+00 6.0000000000000000e+00
ITEM: ATOMS id type xs ys zs
1 2 0.453452 0.512167 0.5
2 1 0.526032 0.553112 0.5
3 1 0.525979 0.469781 0.5
4 1 0.581953 0.408026 0.5
5 1 0.517597 0.460968 0.5
6 1 0.516963 0.482919 0.5
7 1 0.525743 0.482096 0.5
ITEM: TIMESTEP
380
ITEM: NUMBER OF ATOMS
7
ITEM: BOX BOUNDS ff ff pp
-6.0000000000000000e+00 6.0000000000000000e+00
-6.0000000000000000e+00 6.0000000000000000e+00
-6.0000000000000000e+00 6.0000000000000000e+00
ITEM: ATOMS id type xs ys zs
1 2 0.453451 0.512167 0.5
2 1 0.526031 0.553112 0.5
3 1 0.52598 0.469781 0.5
4 1 0.581952 0.408025 0.5
5 1 0.517598 0.460968 0.5
6 1 0.516964 0.482919 0.5
7 1 0.525743 0.482096 0.5
ITEM: TIMESTEP
390
ITEM: NUMBER OF ATOMS
7
ITEM: BOX BOUNDS ff ff pp
-6.0000000000000000e+00 6.0000000000000000e+00
-6.0000000000000000e+00 6.0000000000000000e+00
-6.0000000000000000e+00 6.0000000000000000e+00
ITEM: ATOMS id type xs ys zs
1 2 0.453451 0.512166 0.5
2 1 0.52603 0.553113 0.5
3 1 0.525981 0.469782 0.5
4 1 0.581951 0.408024 0.5
5 1 0.517598 0.460969 0.5
6 1 0.516965 0.48292 0.5
7 1 0.525743 0.482097 0.5
ITEM: TIMESTEP
400
ITEM: NUMBER OF ATOMS
7
ITEM: BOX BOUNDS ff ff pp
-6.0000000000000000e+00 6.0000000000000000e+00
-6.0000000000000000e+00 6.0000000000000000e+00
-6.0000000000000000e+00 6.0000000000000000e+00
ITEM: ATOMS id type xs ys zs
1 2 0.45345 0.512165 0.5
2 1 0.526029 0.553113 0.5
3 1 0.525982 0.469783 0.5
4 1 0.58195 0.408023 0.5
5 1 0.517598 0.460969 0.5
6 1 0.516965 0.48292 0.5
7 1 0.525743 0.482098 0.5
ITEM: TIMESTEP
410
ITEM: NUMBER OF ATOMS
7
ITEM: BOX BOUNDS ff ff pp
-6.0000000000000000e+00 6.0000000000000000e+00
-6.0000000000000000e+00 6.0000000000000000e+00
-6.0000000000000000e+00 6.0000000000000000e+00
ITEM: ATOMS id type xs ys zs
1 2 0.45345 0.512165 0.5
2 1 0.526028 0.553114 0.5
3 1 0.525982 0.469783 0.5
4 1 0.581949 0.408022 0.5
5 1 0.517599 0.46097 0.5
6 1 0.516966 0.48292 0.5
7 1 0.525743 0.482098 0.5
ITEM: TIMESTEP
420
ITEM: NUMBER OF ATOMS
7
ITEM: BOX BOUNDS ff ff pp
-6.0000000000000000e+00 6.0000000000000000e+00
-6.0000000000000000e+00 6.0000000000000000e+00
-6.0000000000000000e+00 6.0000000000000000e+00
ITEM: ATOMS id type xs ys zs
1 2 0.453449 0.512164 0.5
2 1 0.526026 0.553115 0.5
3 1 0.525984 0.469784 0.5
4 1 0.581948 0.408021 0.5
5 1 0.517599 0.46097 0.5
6 1 0.516967 0.482921 0.5
7 1 0.525743 0.482099 0.5
ITEM: TIMESTEP
430
ITEM: NUMBER OF ATOMS
7
ITEM: BOX BOUNDS ff ff pp
-6.0000000000000000e+00 6.0000000000000000e+00
-6.0000000000000000e+00 6.0000000000000000e+00
-6.0000000000000000e+00 6.0000000000000000e+00
ITEM: ATOMS id type xs ys zs
1 2 0.453448 0.512163 0.5
2 1 0.526025 0.553115 0.5
3 1 0.525985 0.469785 0.5
4 1 0.581947 0.408019 0.5
5 1 0.517599 0.460971 0.5
6 1 0.516968 0.482921 0.5
7 1 0.525743 0.4821 0.5
ITEM: TIMESTEP
440
ITEM: NUMBER OF ATOMS
7
ITEM: BOX BOUNDS ff ff pp
-6.0000000000000000e+00 6.0000000000000000e+00
-6.0000000000000000e+00 6.0000000000000000e+00
-6.0000000000000000e+00 6.0000000000000000e+00
ITEM: ATOMS id type xs ys zs
1 2 0.453448 0.512163 0.5
2 1 0.526024 0.553116 0.5
3 1 0.525986 0.469785 0.5
4 1 0.581946 0.408019 0.5
5 1 0.5176 0.460971 0.5
6 1 0.516968 0.482922 0.5
7 1 0.525743 0.4821 0.5
ITEM: TIMESTEP
450
ITEM: NUMBER OF ATOMS
7
ITEM: BOX BOUNDS ff ff pp
-6.0000000000000000e+00 6.0000000000000000e+00
-6.0000000000000000e+00 6.0000000000000000e+00
-6.0000000000000000e+00 6.0000000000000000e+00
ITEM: ATOMS id type xs ys zs
1 2 0.453447 0.512162 0.5
2 1 0.526023 0.553117 0.5
3 1 0.525987 0.469786 0.5
4 1 0.581945 0.408018 0.5
5 1 0.5176 0.460972 0.5
6 1 0.516969 0.482922 0.5
7 1 0.525743 0.482101 0.5
ITEM: TIMESTEP
460
ITEM: NUMBER OF ATOMS
7
ITEM: BOX BOUNDS ff ff pp
-6.0000000000000000e+00 6.0000000000000000e+00
-6.0000000000000000e+00 6.0000000000000000e+00
-6.0000000000000000e+00 6.0000000000000000e+00
ITEM: ATOMS id type xs ys zs
1 2 0.453447 0.512162 0.5
2 1 0.526021 0.553117 0.5
3 1 0.525988 0.469786 0.5
4 1 0.581945 0.408017 0.5
5 1 0.5176 0.460972 0.5
6 1 0.51697 0.482922 0.5
7 1 0.525743 0.482101 0.5
ITEM: TIMESTEP
470
ITEM: NUMBER OF ATOMS
7
ITEM: BOX BOUNDS ff ff pp
-6.0000000000000000e+00 6.0000000000000000e+00
-6.0000000000000000e+00 6.0000000000000000e+00
-6.0000000000000000e+00 6.0000000000000000e+00
ITEM: ATOMS id type xs ys zs
1 2 0.453446 0.512161 0.5
2 1 0.52602 0.553118 0.5
3 1 0.525988 0.469787 0.5
4 1 0.581944 0.408016 0.5
5 1 0.517601 0.460973 0.5
6 1 0.51697 0.482923 0.5
7 1 0.525743 0.482102 0.5
ITEM: TIMESTEP
480
ITEM: NUMBER OF ATOMS
7
ITEM: BOX BOUNDS ff ff pp
-6.0000000000000000e+00 6.0000000000000000e+00
-6.0000000000000000e+00 6.0000000000000000e+00
-6.0000000000000000e+00 6.0000000000000000e+00
ITEM: ATOMS id type xs ys zs
1 2 0.453446 0.51216 0.5
2 1 0.526019 0.553118 0.5
3 1 0.52599 0.469788 0.5
4 1 0.581943 0.408015 0.5
5 1 0.517601 0.460973 0.5
6 1 0.516971 0.482923 0.5
7 1 0.525743 0.482103 0.5
ITEM: TIMESTEP
490
ITEM: NUMBER OF ATOMS
7
ITEM: BOX BOUNDS ff ff pp
-6.0000000000000000e+00 6.0000000000000000e+00
-6.0000000000000000e+00 6.0000000000000000e+00
-6.0000000000000000e+00 6.0000000000000000e+00
ITEM: ATOMS id type xs ys zs
1 2 0.453445 0.51216 0.5
2 1 0.526018 0.553119 0.5
3 1 0.52599 0.469788 0.5
4 1 0.581942 0.408014 0.5
5 1 0.517601 0.460974 0.5
6 1 0.516972 0.482924 0.5
7 1 0.525743 0.482103 0.5
ITEM: TIMESTEP
500
ITEM: NUMBER OF ATOMS
7
ITEM: BOX BOUNDS ff ff pp
-6.0000000000000000e+00 6.0000000000000000e+00
-6.0000000000000000e+00 6.0000000000000000e+00
-6.0000000000000000e+00 6.0000000000000000e+00
ITEM: ATOMS id type xs ys zs
1 2 0.453445 0.512159 0.5
2 1 0.526017 0.553119 0.5
3 1 0.525991 0.469789 0.5
4 1 0.581941 0.408013 0.5
5 1 0.517602 0.460974 0.5
6 1 0.516972 0.482924 0.5
7 1 0.525743 0.482104 0.5
ITEM: TIMESTEP
510
ITEM: NUMBER OF ATOMS
7
ITEM: BOX BOUNDS ff ff pp
-6.0000000000000000e+00 6.0000000000000000e+00
-6.0000000000000000e+00 6.0000000000000000e+00
-6.0000000000000000e+00 6.0000000000000000e+00
ITEM: ATOMS id type xs ys zs
1 2 0.453444 0.512159 0.5
2 1 0.526015 0.55312 0.5
3 1 0.525992 0.46979 0.5
4 1 0.58194 0.408012 0.5
5 1 0.517602 0.460975 0.5
6 1 0.516973 0.482924 0.5
7 1 0.525743 0.482104 0.5
ITEM: TIMESTEP
520
ITEM: NUMBER OF ATOMS
7
ITEM: BOX BOUNDS ff ff pp
-6.0000000000000000e+00 6.0000000000000000e+00
-6.0000000000000000e+00 6.0000000000000000e+00
-6.0000000000000000e+00 6.0000000000000000e+00
ITEM: ATOMS id type xs ys zs
1 2 0.453444 0.512158 0.5
2 1 0.526014 0.553121 0.5
3 1 0.525993 0.46979 0.5
4 1 0.58194 0.408011 0.5
5 1 0.517602 0.460975 0.5
6 1 0.516974 0.482925 0.5
7 1 0.525743 0.482105 0.5
ITEM: TIMESTEP
530
ITEM: NUMBER OF ATOMS
7
ITEM: BOX BOUNDS ff ff pp
-6.0000000000000000e+00 6.0000000000000000e+00
-6.0000000000000000e+00 6.0000000000000000e+00
-6.0000000000000000e+00 6.0000000000000000e+00
ITEM: ATOMS id type xs ys zs
1 2 0.453444 0.512158 0.5
2 1 0.526013 0.553121 0.5
3 1 0.525994 0.46979 0.5
4 1 0.581939 0.40801 0.5
5 1 0.517603 0.460975 0.5
6 1 0.516974 0.482925 0.5
7 1 0.525743 0.482105 0.5
ITEM: TIMESTEP
540
ITEM: NUMBER OF ATOMS
7
ITEM: BOX BOUNDS ff ff pp
-6.0000000000000000e+00 6.0000000000000000e+00
-6.0000000000000000e+00 6.0000000000000000e+00
-6.0000000000000000e+00 6.0000000000000000e+00
ITEM: ATOMS id type xs ys zs
1 2 0.453443 0.512157 0.5
2 1 0.526012 0.553122 0.5
3 1 0.525995 0.469791 0.5
4 1 0.581938 0.408009 0.5
5 1 0.517603 0.460976 0.5
6 1 0.516975 0.482925 0.5
7 1 0.525743 0.482106 0.5
ITEM: TIMESTEP
550
ITEM: NUMBER OF ATOMS
7
ITEM: BOX BOUNDS ff ff pp
-6.0000000000000000e+00 6.0000000000000000e+00
-6.0000000000000000e+00 6.0000000000000000e+00
-6.0000000000000000e+00 6.0000000000000000e+00
ITEM: ATOMS id type xs ys zs
1 2 0.453442 0.512156 0.5
2 1 0.526011 0.553123 0.5
3 1 0.525996 0.469792 0.5
4 1 0.581937 0.408008 0.5
5 1 0.517603 0.460976 0.5
6 1 0.516976 0.482926 0.5
7 1 0.525743 0.482107 0.5
ITEM: TIMESTEP
560
ITEM: NUMBER OF ATOMS
7
ITEM: BOX BOUNDS ff ff pp
-6.0000000000000000e+00 6.0000000000000000e+00
-6.0000000000000000e+00 6.0000000000000000e+00
-6.0000000000000000e+00 6.0000000000000000e+00
ITEM: ATOMS id type xs ys zs
1 2 0.453442 0.512156 0.5
2 1 0.52601 0.553123 0.5
3 1 0.525997 0.469792 0.5
4 1 0.581936 0.408007 0.5
5 1 0.517604 0.460977 0.5
6 1 0.516976 0.482926 0.5
7 1 0.525742 0.482107 0.5
ITEM: TIMESTEP
570
ITEM: NUMBER OF ATOMS
7
ITEM: BOX BOUNDS ff ff pp
-6.0000000000000000e+00 6.0000000000000000e+00
-6.0000000000000000e+00 6.0000000000000000e+00
-6.0000000000000000e+00 6.0000000000000000e+00
ITEM: ATOMS id type xs ys zs
1 2 0.453441 0.512155 0.5
2 1 0.526008 0.553124 0.5
3 1 0.525998 0.469793 0.5
4 1 0.581935 0.408006 0.5
5 1 0.517604 0.460977 0.5
6 1 0.516977 0.482927 0.5
7 1 0.525742 0.482108 0.5
ITEM: TIMESTEP
580
ITEM: NUMBER OF ATOMS
7
ITEM: BOX BOUNDS ff ff pp
-6.0000000000000000e+00 6.0000000000000000e+00
-6.0000000000000000e+00 6.0000000000000000e+00
-6.0000000000000000e+00 6.0000000000000000e+00
ITEM: ATOMS id type xs ys zs
1 2 0.453441 0.512154 0.5
2 1 0.526007 0.553125 0.5
3 1 0.525999 0.469794 0.5
4 1 0.581934 0.408005 0.5
5 1 0.517604 0.460978 0.5
6 1 0.516978 0.482927 0.5
7 1 0.525742 0.482108 0.5
ITEM: TIMESTEP
590
ITEM: NUMBER OF ATOMS
7
ITEM: BOX BOUNDS ff ff pp
-6.0000000000000000e+00 6.0000000000000000e+00
-6.0000000000000000e+00 6.0000000000000000e+00
-6.0000000000000000e+00 6.0000000000000000e+00
ITEM: ATOMS id type xs ys zs
1 2 0.45344 0.512154 0.5
2 1 0.526006 0.553125 0.5
3 1 0.526 0.469794 0.5
4 1 0.581934 0.408004 0.5
5 1 0.517605 0.460978 0.5
6 1 0.516978 0.482927 0.5
7 1 0.525742 0.482109 0.5
ITEM: TIMESTEP
600
ITEM: NUMBER OF ATOMS
7
ITEM: BOX BOUNDS ff ff pp
-6.0000000000000000e+00 6.0000000000000000e+00
-6.0000000000000000e+00 6.0000000000000000e+00
-6.0000000000000000e+00 6.0000000000000000e+00
ITEM: ATOMS id type xs ys zs
1 2 0.45344 0.512153 0.5
2 1 0.526005 0.553126 0.5
3 1 0.526001 0.469795 0.5
4 1 0.581933 0.408003 0.5
5 1 0.517605 0.460979 0.5
6 1 0.516979 0.482928 0.5
7 1 0.525742 0.48211 0.5
ITEM: TIMESTEP
610
ITEM: NUMBER OF ATOMS
7
ITEM: BOX BOUNDS ff ff pp
-6.0000000000000000e+00 6.0000000000000000e+00
-6.0000000000000000e+00 6.0000000000000000e+00
-6.0000000000000000e+00 6.0000000000000000e+00
ITEM: ATOMS id type xs ys zs
1 2 0.453439 0.512153 0.5
2 1 0.526004 0.553126 0.5
3 1 0.526002 0.469795 0.5
4 1 0.581932 0.408002 0.5
5 1 0.517605 0.460979 0.5
6 1 0.51698 0.482928 0.5
7 1 0.525742 0.48211 0.5
ITEM: TIMESTEP
620
ITEM: NUMBER OF ATOMS
7
ITEM: BOX BOUNDS ff ff pp
-6.0000000000000000e+00 6.0000000000000000e+00
-6.0000000000000000e+00 6.0000000000000000e+00
-6.0000000000000000e+00 6.0000000000000000e+00
ITEM: ATOMS id type xs ys zs
1 2 0.453439 0.512152 0.5
2 1 0.526003 0.553127 0.5
3 1 0.526002 0.469796 0.5
4 1 0.581931 0.408001 0.5
5 1 0.517606 0.460979 0.5
6 1 0.51698 0.482928 0.5
7 1 0.525742 0.482111 0.5
ITEM: TIMESTEP
630
ITEM: NUMBER OF ATOMS
7
ITEM: BOX BOUNDS ff ff pp
-6.0000000000000000e+00 6.0000000000000000e+00
-6.0000000000000000e+00 6.0000000000000000e+00
-6.0000000000000000e+00 6.0000000000000000e+00
ITEM: ATOMS id type xs ys zs
1 2 0.453438 0.512152 0.5
2 1 0.526001 0.553128 0.5
3 1 0.526004 0.469797 0.5
4 1 0.58193 0.408 0.5
5 1 0.517606 0.46098 0.5
6 1 0.516981 0.482929 0.5
7 1 0.525742 0.482111 0.5
ITEM: TIMESTEP
640
ITEM: NUMBER OF ATOMS
7
ITEM: BOX BOUNDS ff ff pp
-6.0000000000000000e+00 6.0000000000000000e+00
-6.0000000000000000e+00 6.0000000000000000e+00
-6.0000000000000000e+00 6.0000000000000000e+00
ITEM: ATOMS id type xs ys zs
1 2 0.453438 0.512151 0.5
2 1 0.526 0.553128 0.5
3 1 0.526004 0.469797 0.5
4 1 0.581929 0.407999 0.5
5 1 0.517606 0.46098 0.5
6 1 0.516982 0.482929 0.5
7 1 0.525742 0.482112 0.5
ITEM: TIMESTEP
650
ITEM: NUMBER OF ATOMS
7
ITEM: BOX BOUNDS ff ff pp
-6.0000000000000000e+00 6.0000000000000000e+00
-6.0000000000000000e+00 6.0000000000000000e+00
-6.0000000000000000e+00 6.0000000000000000e+00
ITEM: ATOMS id type xs ys zs
1 2 0.453438 0.512151 0.5
2 1 0.525999 0.553129 0.5
3 1 0.526005 0.469798 0.5
4 1 0.581929 0.407998 0.5
5 1 0.517607 0.460981 0.5
6 1 0.516982 0.48293 0.5
7 1 0.525742 0.482112 0.5
ITEM: TIMESTEP
660
ITEM: NUMBER OF ATOMS
7
ITEM: BOX BOUNDS ff ff pp
-6.0000000000000000e+00 6.0000000000000000e+00
-6.0000000000000000e+00 6.0000000000000000e+00
-6.0000000000000000e+00 6.0000000000000000e+00
ITEM: ATOMS id type xs ys zs
1 2 0.453437 0.51215 0.5
2 1 0.525998 0.553129 0.5
3 1 0.526006 0.469798 0.5
4 1 0.581928 0.407997 0.5
5 1 0.517607 0.460981 0.5
6 1 0.516983 0.48293 0.5
7 1 0.525742 0.482113 0.5
ITEM: TIMESTEP
670
ITEM: NUMBER OF ATOMS
7
ITEM: BOX BOUNDS ff ff pp
-6.0000000000000000e+00 6.0000000000000000e+00
-6.0000000000000000e+00 6.0000000000000000e+00
-6.0000000000000000e+00 6.0000000000000000e+00
ITEM: ATOMS id type xs ys zs
1 2 0.453436 0.512149 0.5
2 1 0.525996 0.55313 0.5
3 1 0.526008 0.469799 0.5
4 1 0.581927 0.407996 0.5
5 1 0.517607 0.460982 0.5
6 1 0.516984 0.48293 0.5
7 1 0.525742 0.482114 0.5
ITEM: TIMESTEP
680
ITEM: NUMBER OF ATOMS
7
ITEM: BOX BOUNDS ff ff pp
-6.0000000000000000e+00 6.0000000000000000e+00
-6.0000000000000000e+00 6.0000000000000000e+00
-6.0000000000000000e+00 6.0000000000000000e+00
ITEM: ATOMS id type xs ys zs
1 2 0.453436 0.512149 0.5
2 1 0.525996 0.55313 0.5
3 1 0.526008 0.4698 0.5
4 1 0.581926 0.407995 0.5
5 1 0.517608 0.460982 0.5
6 1 0.516984 0.482931 0.5
7 1 0.525742 0.482114 0.5
ITEM: TIMESTEP
690
ITEM: NUMBER OF ATOMS
7
ITEM: BOX BOUNDS ff ff pp
-6.0000000000000000e+00 6.0000000000000000e+00
-6.0000000000000000e+00 6.0000000000000000e+00
-6.0000000000000000e+00 6.0000000000000000e+00
ITEM: ATOMS id type xs ys zs
1 2 0.453436 0.512148 0.5
2 1 0.525995 0.553131 0.5
3 1 0.526009 0.4698 0.5
4 1 0.581925 0.407994 0.5
5 1 0.517608 0.460983 0.5
6 1 0.516985 0.482931 0.5
7 1 0.525742 0.482115 0.5
ITEM: TIMESTEP
700
ITEM: NUMBER OF ATOMS
7
ITEM: BOX BOUNDS ff ff pp
-6.0000000000000000e+00 6.0000000000000000e+00
-6.0000000000000000e+00 6.0000000000000000e+00
-6.0000000000000000e+00 6.0000000000000000e+00
ITEM: ATOMS id type xs ys zs
1 2 0.453435 0.512147 0.5
2 1 0.525993 0.553132 0.5
3 1 0.52601 0.469801 0.5
4 1 0.581924 0.407993 0.5
5 1 0.517608 0.460983 0.5
6 1 0.516986 0.482932 0.5
7 1 0.525742 0.482115 0.5
ITEM: TIMESTEP
710
ITEM: NUMBER OF ATOMS
7
ITEM: BOX BOUNDS ff ff pp
-6.0000000000000000e+00 6.0000000000000000e+00
-6.0000000000000000e+00 6.0000000000000000e+00
-6.0000000000000000e+00 6.0000000000000000e+00