ITEM: TIMESTEP
1
ITEM: NUMBER OF ATOMS
7
ITEM: BOX BOUNDS ff ff pp
-6.0 6.0
-6.0 6.0
-6.0 6.0
ITEM: ATOMS id type x y z 
1 2 -0.000264 -0.025296 0.0 
2 1 0.999396 0.000972 0.0 
3 1 0.533604 -0.88392 0.0 
4 1 0.7632 -1.85724 0.0 
5 1 0.39204 -0.92868 0.0 
6 1 0.51144 -0.69414 0.0 
7 1 0.597156 -0.750456 0.0 
