# LAMMPS data file for rigid bodies 
 
      7     atoms
     11     bonds
     0     angles
     0     dihedrals

     2     atom types 
     11     bond types 
     0     angle types
     0     dihedral types

     -6     6 xlo xhi
     -6     6 ylo yhi
     -6     6 zlo zhi

Masses

     1     1
     2     1

Atoms

     1     1     2     0.3761154506864164     0.7822567477027278     0.0
     2     1     1     1.364989552677014     0.9310116145551748     0.0
     3     1     1     1.0     0.0     0.0
     4     1     1     0.0     0.0     0.0
     5     1     1     -0.6238845492356385     0.7822442621047874     0.0
     6     1     1     0.14084262270450673     0.6922595310449284     0.0
     7     1     1     0.21232456042715112     0.3176060822932877     0.0

Bonds

     1     1     1     6
     2     2     5     6
     3     3     2     6
     4     4     3     6
     5     5     3     7
     6     6     4     7
     7     7     1     2
     8     8     2     3
     9     9     3     4
     10     10     4     5
     11     11     5     1

Bond Coeffs

     1     1     0.251898397360436
     2     1     0.7700031813749133
     3     1     1.2472121966776937
     4     1     1.1033470248674326
     5     1     0.8492974871127145
     6     1     0.38204102197313
     7     1     0.9999999999999999
     8     1     1.0
     9     1     1.0
     10     1     1.0005688463923006
     11     1     1.0
