# LAMMPS data file for rigid bodies 
 
      7     atoms
     11     bonds
     0     angles
     0     dihedrals

     2     atom types 
     11     bond types 
     0     angle types
     0     dihedral types

     -6     6 xlo xhi
     -6     6 ylo yhi
     -6     6 zlo zhi

Masses

     1     1
     2     1

Atoms

     1     1     2     -0.952952143039099     0.24872854494561003     0.0
     2     1     1     -0.551220296205791     1.164485894487452     0.0
     3     1     1     0.07804392168368046     0.38729444826332393     0.0
     4     1     1     1.0     0.0     0.0
     5     1     1     0.0     0.0     0.0
     6     1     1     -0.10500785925579859     0.4418716082974111     0.0
     7     1     1     -0.013670644582269187     0.27137819433218147     0.0

Bonds

     1     1     4     6
     2     2     3     6
     3     3     2     6
     4     4     3     7
     5     5     1     7
     6     6     5     7
     7     7     1     2
     8     8     2     3
     9     9     3     4
     10     10     4     5
     11     11     5     1

Bond Coeffs

     1     1     1.1900810422977184
     2     1     0.19101471383770777
     3     1     0.849280251445183
     4     1     0.14781116192893
     5     1     0.9395545433665053
     6     1     0.2717223047198922
     7     1     1.0
     8     1     1.0
     9     1     1.0
     10     1     1.0
     11     1     0.9848774928860806
