# LAMMPS data file for rigid bodies 
 
      7     atoms
     11     bonds
     0     angles
     0     dihedrals

     2     atom types 
     11     bond types 
     0     angle types
     0     dihedral types

     -6     6 xlo xhi
     -6     6 ylo yhi
     -6     6 zlo zhi

Masses

     1     1
     2     1

Atoms

     1     1     2     0.0     0.0     0.0
     2     1     1     1.0     0.0     0.0
     3     1     1     0.5434574919265193     -0.8897016007190139     0.0
     4     1     1     0.7755808741328332     -1.8623879506967966     0.0
     5     1     1     0.3854000982149423     -0.9416496805547803     0.0
     6     1     1     0.16054078900369817     -0.840789465243536     0.0
     7     1     1     0.24961645047450878     -0.09808263736677152     0.0

Bonds

     1     1     4     6
     2     2     3     6
     3     3     2     6
     4     4     3     7
     5     5     1     7
     6     6     5     7
     7     7     1     2
     8     8     2     3
     9     9     3     4
     10     10     4     5
     11     11     5     1

Bond Coeffs

     1     1     1.1924503225694771
     2     1     0.3860279761546507
     3     1     1.188115605398332
     4     1     0.8443951330866853
     5     1     0.26819503369808045
     6     1     0.8544252778017852
     7     1     1.0
     8     1     1.0
     9     1     1.0
     10     1     1.0
     11     1     1.0174661451827314
