# LAMMPS data file for rigid bodies 
 
      7     atoms
     11     bonds
     0     angles
     0     dihedrals

     2     atom types 
     11     bond types 
     0     angle types
     0     dihedral types

     -6     6 xlo xhi
     -6     6 ylo yhi
     -6     6 zlo zhi

Masses

     1     1
     2     1

Atoms

     1     1     2     1.0     0.0     0.0
     2     1     1     0.0     0.0     0.0
     3     1     1     0.08938490302505397     1.007668863941572     0.0
     4     1     1     0.8065728713631395     1.7045486369807163     0.0
     5     1     1     1.4140849851466077     0.9102382243545553     0.0
     6     1     1     0.9471616765567414     0.9837708149498235     0.0
     7     1     1     0.20522184330877466     0.2577365397490776     0.0

Bonds

     1     1     4     6
     2     2     1     6
     3     3     5     7
     4     4     2     7
     5     5     3     7
     6     6     4     7
     7     7     1     2
     8     8     2     3
     9     9     3     4
     10     10     4     5
     11     11     5     1

Bond Coeffs

     1     1     0.7343608655677138
     2     1     0.9851887660602583
     3     1     1.3737206936299033
     4     1     0.3294603601237623
     5     1     0.7588258611849301
     6     1     1.5668083174523468
     7     1     1.0
     8     1     1.0116255237221414
     9     1     1.0
     10     1     1.0
     11     1     1.0
