# LAMMPS data file for rigid bodies 
 
      7     atoms
     11     bonds
     0     angles
     0     dihedrals

     2     atom types 
     11     bond types 
     0     angle types
     0     dihedral types

     -6     6 xlo xhi
     -6     6 ylo yhi
     -6     6 zlo zhi

Masses

     1     1
     2     1

Atoms

     1     1     2     1.0     0.0     0.0
     2     1     1     0.0     0.0     0.0
     3     1     1     0.9347788809777777     0.35258346604677093     0.0
     4     1     1     1.6070431033117907     -0.38772783021288004     0.0
     5     1     1     0.8013581754469484     -0.9800721532306867     0.0
     6     1     1     0.40133427301065816     0.024191739806214807     0.0
     7     1     1     0.9616761638401075     0.11550396672879701     0.0

Bonds

     1     1     3     6
     2     2     4     6
     3     3     1     7
     4     4     2     7
     5     5     5     7
     6     6     4     7
     7     7     1     2
     8     8     2     3
     9     9     3     4
     10     10     4     5
     11     11     5     1

Bond Coeffs

     1     1     0.626421803286289
     2     1     1.2741316712297992
     3     1     0.12169586167202784
     4     1     0.9685877401806778
     5     1     1.1072438268186038
     6     1     0.8183768862915158
     7     1     1.0
     8     1     0.9990628893376136
     9     1     0.9999999999999999
     10     1     0.9999999999999999
     11     1     1.0
