# LAMMPS data file for rigid bodies 
 
      7     atoms
     11     bonds
     0     angles
     0     dihedrals

     2     atom types 
     11     bond types 
     0     angle types
     0     dihedral types

     -6     6 xlo xhi
     -6     6 ylo yhi
     -6     6 zlo zhi

Masses

     1     1
     2     1

Atoms

     1     1     2     0.0     0.0     0.0
     2     1     1     -0.9408592903401093     -0.3553242353040714     0.0
     3     1     1     -0.17984209463105827     -1.0040559424335533     0.0
     4     1     1     0.8199498340481352     -0.9836574290578535     0.0
     5     1     1     1.0     0.0     0.0
     6     1     1     0.31645903049222174     -0.13218550515482175     0.0
     7     1     1     0.4164235591571036     -0.5940879161201551     0.0

Bonds

     1     1     2     6
     2     2     1     6
     3     3     5     6
     4     4     3     6
     5     5     3     7
     6     6     4     7
     7     7     1     2
     8     8     2     3
     9     9     3     4
     10     10     4     5
     11     11     5     1

Bond Coeffs

     1     1     1.2769652512082121
     2     1     0.3429567403523545
     3     1     0.6962049014253411
     4     1     1.0032312127317613
     5     1     0.7236066006378931
     6     1     0.5608902387615137
     7     1     1.0057194024248102
     8     1     1.0
     9     1     1.0
     10     1     1.0
     11     1     1.0
