# LAMMPS data file for rigid bodies 
 
      7     atoms
     11     bonds
     0     angles
     0     dihedrals

     2     atom types 
     11     bond types 
     0     angle types
     0     dihedral types

     -6     6 xlo xhi
     -6     6 ylo yhi
     -6     6 zlo zhi

Masses

     1     1
     2     1

Atoms

     1     1     2     0.08938490302505397     1.007668863941572     0.0
     2     1     1     0.8065728713631395     1.7045486369807163     0.0
     3     1     1     1.4140849851466077     0.9102382243545553     0.0
     4     1     1     1.0     0.0     0.0
     5     1     1     0.0     0.0     0.0
     6     1     1     0.6525465543284257     0.8029953586625838     0.0
     7     1     1     0.14595698349837688     0.16525320291655993     0.0

Bonds

     1     1     1     6
     2     2     3     6
     3     3     5     6
     4     4     1     7
     5     5     4     7
     6     6     2     7
     7     7     1     2
     8     8     2     3
     9     9     3     4
     10     10     4     5
     11     11     5     1

Bond Coeffs

     1     1     0.5992013762183198
     2     1     0.769052542974045
     3     1     1.0347069882819737
     4     1     0.844313061742674
     5     1     0.8698839549671975
     6     1     1.6750653075716506
     7     1     1.0
     8     1     1.0
     9     1     1.0
     10     1     1.0
     11     1     1.0116255237221414
