# LAMMPS data file for rigid bodies 
 
      7     atoms
     11     bonds
     0     angles
     0     dihedrals

     2     atom types 
     11     bond types 
     0     angle types
     0     dihedral types

     -6     6 xlo xhi
     -6     6 ylo yhi
     -6     6 zlo zhi

Masses

     1     1
     2     1

Atoms

     1     1     2     1.0     0.0     0.0
     2     1     1     1.812342783226594     -0.5831802487564809     0.0
     3     1     1     1.0477350216812267     -1.2276761533086997     0.0
     4     1     1     0.07369741374684857     -1.0012898941641248     0.0
     5     1     1     0.0     0.0     0.0
     6     1     1     0.380413090345452     -0.09776741032695871     0.0
     7     1     1     1.2596656355724583     -0.19284377954817616     0.0

Bonds

     1     1     1     6
     2     2     5     6
     3     3     4     7
     4     4     1     7
     5     5     3     7
     6     6     2     7
     7     7     1     2
     8     8     2     3
     9     9     3     4
     10     10     4     5
     11     11     5     1

Bond Coeffs

     1     1     0.6272530630752734
     2     1     0.39277549036086373
     3     1     1.435306846433132
     4     1     0.32344236829406603
     5     1     1.0563108571283144
     6     1     0.6766199736433421
     7     1     0.9999999999999999
     8     1     0.9999999999999999
     9     1     0.9999999999999999
     10     1     1.003998386925088
     11     1     1.0
