# LAMMPS data file for rigid bodies 
 
      7     atoms
     11     bonds
     0     angles
     0     dihedrals

     2     atom types 
     11     bond types 
     0     angle types
     0     dihedral types

     -6     6 xlo xhi
     -6     6 ylo yhi
     -6     6 zlo zhi

Masses

     1     1
     2     1

Atoms

     1     1     2     0.4886183220430754     0.8593536986887065     0.0
     2     1     1     1.0     0.0     0.0
     3     1     1     0.0     0.0     0.0
     4     1     1     0.17638770058752673     0.9673157076806713     0.0
     5     1     1     0.6548058317730494     1.8454478684360738     0.0
     6     1     1     0.5668129166263391     0.14174917992115743     0.0
     7     1     1     0.37384299828304085     1.3101234731594689     0.0

Bonds

     1     1     3     6
     2     2     5     6
     3     3     4     7
     4     4     2     7
     5     5     3     7
     6     6     1     7
     7     7     1     2
     8     8     2     3
     9     9     3     4
     10     10     4     5
     11     11     5     1

Bond Coeffs

     1     1     0.5842685277017563
     2     1     1.70596951155742
     3     1     0.39560808720321977
     4     1     1.4520661506014805
     5     1     1.3624177414760434
     6     1     0.4651524099912229
     7     1     0.9999999999999999
     8     1     1.0
     9     1     0.9832661385628577
     10     1     1.0
     11     1     0.9999999999999999
