# LAMMPS data file for rigid bodies 
 
      7     atoms
     11     bonds
     0     angles
     0     dihedrals

     2     atom types 
     11     bond types 
     0     angle types
     0     dihedral types

     -6     6 xlo xhi
     -6     6 ylo yhi
     -6     6 zlo zhi

Masses

     1     1
     2     1

Atoms

     1     1     2     0.0     0.0     0.0
     2     1     1     1.0     0.0     0.0
     3     1     1     0.4587234609018429     0.8408446397652312     0.0
     4     1     1     -0.49143195421535146     0.5290679775156777     0.0
     5     1     1     -0.9044110728587638     -0.3816725165684003     0.0
     6     1     1     0.6000232212119765     0.4138927013104213     0.0
     7     1     1     0.7951306166913975     0.1900962378480746     0.0

Bonds

     1     1     1     6
     2     2     5     6
     3     3     2     6
     4     4     1     7
     5     5     4     7
     6     6     3     7
     7     7     1     2
     8     8     2     3
     9     9     3     4
     10     10     4     5
     11     11     5     1

Bond Coeffs

     1     1     0.7289273174958077
     2     1     1.701836232154758
     3     1     0.5755767470699986
     4     1     0.8175385478642789
     5     1     1.330467996289826
     6     1     0.7325593880800045
     7     1     1.0
     8     1     1.0
     9     1     1.0
     10     1     1.0
     11     1     0.981648256053662
