# LAMMPS data file for rigid bodies 
 
      7     atoms
     11     bonds
     0     angles
     0     dihedrals

     2     atom types 
     11     bond types 
     0     angle types
     0     dihedral types

     -6     6 xlo xhi
     -6     6 ylo yhi
     -6     6 zlo zhi

Masses

     1     1
     2     1

Atoms

     1     1     2     0.0     0.0     0.0
     2     1     1     -1.0029902207611692     0.11557925991788076     0.0
     3     1     1     -0.6734110691379213     1.0597072082465488     0.0
     4     1     1     0.08920199578720533     0.4128522683987459     0.0
     5     1     1     1.0     0.0     0.0
     6     1     1     0.6690892972147834     0.1209337353103912     0.0
     7     1     1     0.08458604309114397     0.3158733719517789     0.0

Bonds

     1     1     3     6
     2     2     1     6
     3     3     5     6
     4     4     2     6
     5     5     4     7
     6     6     1     7
     7     7     1     2
     8     8     2     3
     9     9     3     4
     10     10     4     5
     11     11     5     1

Bond Coeffs

     1     1     1.638170585484235
     2     1     0.6799304787869834
     3     1     0.35231642248684597
     4     1     1.6720880912324634
     5     1     0.09708868819468015
     6     1     0.3270027305604706
     7     1     1.0096276285174173
     8     1     1.0
     9     1     1.0
     10     1     1.0
     11     1     1.0
