# LAMMPS data file for rigid bodies 
 
      7     atoms
     11     bonds
     0     angles
     0     dihedrals

     2     atom types 
     11     bond types 
     0     angle types
     0     dihedral types

     -6     6 xlo xhi
     -6     6 ylo yhi
     -6     6 zlo zhi

Masses

     1     1
     2     1

Atoms

     1     1     2     1.0     0.0     0.0
     2     1     1     0.0     0.0     0.0
     3     1     1     -0.1485460143905622     -0.9774320334557024     0.0
     4     1     1     0.3069361566959336     -1.8676769389858223     0.0
     5     1     1     0.7365935014737874     -0.9646849312258176     0.0
     6     1     1     0.03216208134456949     -0.09205961750487696     0.0
     7     1     1     0.7043574933395162     -0.7989905334094574     0.0

Bonds

     1     1     4     6
     2     2     3     6
     3     3     2     6
     4     4     4     7
     5     5     1     7
     6     6     5     7
     7     7     1     2
     8     8     2     3
     9     9     3     4
     10     10     4     5
     11     11     5     1

Bond Coeffs

     1     1     1.7967519764364708
     2     1     0.9036258798810595
     3     1     0.09751601228290128
     4     1     1.1401904894723962
     5     1     0.8519333097270134
     6     1     0.1688010476512484
     7     1     1.0
     8     1     0.9886552980774798
     9     1     1.0
     10     1     1.0
     11     1     0.9999999999999999
