# LAMMPS data file for rigid bodies 
 
      7     atoms
     11     bonds
     0     angles
     0     dihedrals

     2     atom types 
     11     bond types 
     0     angle types
     0     dihedral types

     -6     6 xlo xhi
     -6     6 ylo yhi
     -6     6 zlo zhi

Masses

     1     1
     2     1

Atoms

     1     1     2     0.9407314328446642     0.3652539584001163     0.0
     2     1     1     0.0     0.0     0.0
     3     1     1     1.0     0.0     0.0
     4     1     1     1.1333676530180596     -0.9910666320326068     0.0
     5     1     1     1.75838537200669     -0.2104560691075016     0.0
     6     1     1     0.0760181910289709     0.028236802650884574     0.0
     7     1     1     0.4953496186187888     0.0664757178434058     0.0

Bonds

     1     1     1     6
     2     2     3     6
     3     3     4     6
     4     4     2     6
     5     5     5     7
     6     6     3     7
     7     7     1     2
     8     8     2     3
     9     9     3     4
     10     10     4     5
     11     11     5     1

Bond Coeffs

     1     1     0.9280676450780447
     2     1     0.9244131653829474
     3     1     1.468661763894661
     4     1     0.08109304773691832
     5     1     1.2930392604093528
     6     1     0.5090098510746114
     7     1     1.009151169483011
     8     1     1.0
     9     1     1.0
     10     1     1.0
     11     1     0.9999999999999999
