# LAMMPS data file for rigid bodies 
 
      7     atoms
     11     bonds
     0     angles
     0     dihedrals

     2     atom types 
     11     bond types 
     0     angle types
     0     dihedral types

     -6     6 xlo xhi
     -6     6 ylo yhi
     -6     6 zlo zhi

Masses

     1     1
     2     1

Atoms

     1     1     2     1.0     0.0     0.0
     2     1     1     0.0     0.0     0.0
     3     1     1     -0.45167817278463374     0.8699182357032741     0.0
     4     1     1     0.5426352367829834     0.7634248389407519     0.0
     5     1     1     1.539546933632989     0.8419555251955052     0.0
     6     1     1     0.35317198213613893     0.1748955804965044     0.0
     7     1     1     0.3464306357400918     0.7212446278358057     0.0

Bonds

     1     1     1     6
     2     2     4     6
     3     3     2     6
     4     4     3     7
     5     5     4     7
     6     6     5     7
     7     7     1     2
     8     8     2     3
     9     9     3     4
     10     10     4     5
     11     11     5     1

Bond Coeffs

     1     1     0.6700559295841658
     2     1     0.6182742214473371
     3     1     0.39410520555199274
     4     1     0.8118383533198508
     5     1     0.20068735804543866
     6     1     1.1992070801321333
     7     1     1.0
     8     1     0.9801892208033929
     9     1     1.0
     10     1     0.9999999999999999
     11     1     1.0
