# LAMMPS data file for rigid bodies 
 
      7     atoms
     11     bonds
     0     angles
     0     dihedrals

     2     atom types 
     11     bond types 
     0     angle types
     0     dihedral types

     -6     6 xlo xhi
     -6     6 ylo yhi
     -6     6 zlo zhi

Masses

     1     1
     2     1

Atoms

     1     1     2     1.0     0.0     0.0
     2     1     1     0.0     0.0     0.0
     3     1     1     0.29160583901581266     0.9754083633712362     0.0
     4     1     1     0.6200244274963289     0.030876081900419905     0.0
     5     1     1     0.8895183705453873     0.9938781663529256     0.0
     6     1     1     0.8431400749090936     0.8271882882538577     0.0
     7     1     1     0.5514120079921194     0.21178707477518063     0.0

Bonds

     1     1     1     6
     2     2     3     6
     3     3     4     6
     4     4     5     7
     5     5     4     7
     6     6     2     7
     7     7     1     2
     8     8     2     3
     9     9     3     4
     10     10     4     5
     11     11     5     1

Bond Coeffs

     1     1     0.8419296290806447
     2     1     0.5711034967763606
     3     1     0.826978670890548
     4     1     0.8520460010611343
     5     1     0.19348501609466648
     6     1     0.5906851679191963
     7     1     1.0
     8     1     1.0180645562451673
     9     1     0.9999999999999999
     10     1     1.0
     11     1     1.0
