# LAMMPS data file for rigid bodies 
 
      7     atoms
     11     bonds
     0     angles
     0     dihedrals

     2     atom types 
     11     bond types 
     0     angle types
     0     dihedral types

     -6     6 xlo xhi
     -6     6 ylo yhi
     -6     6 zlo zhi

Masses

     1     1
     2     1

Atoms

     1     1     2     0.37674899386323146     0.7820218560561499     0.0
     2     1     1     1.0     0.0     0.0
     3     1     1     0.0     0.0     0.0
     4     1     1     -0.5963346247529203     -0.8385321072224826     0.0
     5     1     1     -0.38987240822022384     0.139922466656349     0.0
     6     1     1     0.292144534472827     0.14747448410531253     0.0
     7     1     1     0.3272090732830431     0.6373503620290715     0.0

Bonds

     1     1     2     6
     2     2     4     6
     3     3     5     6
     4     4     3     6
     5     5     5     7
     6     6     1     7
     7     7     1     2
     8     8     2     3
     9     9     3     4
     10     10     4     5
     11     11     5     1

Bond Coeffs

     1     1     0.7230546891755967
     2     1     1.327254389527625
     3     1     0.6820587533988005
     4     1     0.3272570128881471
     5     1     0.8727200938501738
     6     1     0.15291842568872585
     7     1     1.0
     8     1     1.0
     9     1     1.0289563059344082
     10     1     1.0
     11     1     1.0
