# LAMMPS data file for rigid bodies 
 
      7     atoms
     11     bonds
     0     angles
     0     dihedrals

     2     atom types 
     11     bond types 
     0     angle types
     0     dihedral types

     -6     6 xlo xhi
     -6     6 ylo yhi
     -6     6 zlo zhi

Masses

     1     1
     2     1

Atoms

     1     1     2     1.243619300040114     0.9684206209224512     0.0
     2     1     1     0.24369272935808028     0.9805389229515309     0.0
     3     1     1     0.0     0.0     0.0
     4     1     1     1.0     0.0     0.0
     5     1     1     1.9620612192025861     0.27283366820543564     0.0
     6     1     1     0.9745485128375498     0.039407239741111294     0.0
     7     1     1     0.005194280468041712     0.019197066555274755     0.0

Bonds

     1     1     5     6
     2     2     3     6
     3     3     4     7
     4     4     3     7
     5     5     1     7
     6     6     2     7
     7     7     1     2
     8     8     2     3
     9     9     3     4
     10     10     4     5
     11     11     5     1

Bond Coeffs

     1     1     1.0147261910180543
     2     1     0.9753449309951292
     3     1     0.9949909280882038
     4     1     0.01988738077043652
     5     1     1.5603595371796666
     6     1     0.9904845657466624
     7     1     1.0
     8     1     1.0103676191193673
     9     1     1.0
     10     1     1.0
     11     1     0.9999999999999999
