# LAMMPS data file for rigid bodies 
 
      7     atoms
     11     bonds
     0     angles
     0     dihedrals

     2     atom types 
     11     bond types 
     0     angle types
     0     dihedral types

     -6     6 xlo xhi
     -6     6 ylo yhi
     -6     6 zlo zhi

Masses

     1     1
     2     1

Atoms

     1     1     2     0.0     0.0     0.0
     2     1     1     -0.3736465703334345     0.9478854264705626     0.0
     3     1     1     0.5626169326646294     0.5965869024859116     0.0
     4     1     1     1.5305938260443215     0.8476262099319771     0.0
     5     1     1     1.0     0.0     0.0
     6     1     1     0.478638829473146     0.16425360198138123     0.0
     7     1     1     0.9753489908660002     0.27738686339279306     0.0

Bonds

     1     1     5     6
     2     2     1     6
     3     3     4     7
     4     4     1     7
     5     5     2     7
     6     6     3     7
     7     7     1     2
     8     8     2     3
     9     9     3     4
     10     10     4     5
     11     11     5     1

Bond Coeffs

     1     1     0.5466230107642646
     2     1     0.5060379183848591
     3     1     0.7959081224196903
     4     1     1.014026195897432
     5     1     1.506438630421144
     6     1     0.5217627974704484
     7     1     1.0188712093474908
     8     1     1.0
     9     1     1.0
     10     1     0.9999999999999999
     11     1     1.0
