# LAMMPS data file for rigid bodies 
 
      7     atoms
     11     bonds
     0     angles
     0     dihedrals

     2     atom types 
     11     bond types 
     0     angle types
     0     dihedral types

     -6     6 xlo xhi
     -6     6 ylo yhi
     -6     6 zlo zhi

Masses

     1     1
     2     1

Atoms

     1     1     2     0.0     0.0     0.0
     2     1     1     -0.13460653844704384     -0.9921096585338147     0.0
     3     1     1     0.8627534857406653     -1.064724961000252     0.0
     4     1     1     1.7681836025705766     -0.6402296093915764     0.0
     5     1     1     1.0     0.0     0.0
     6     1     1     1.0910358662786421     -0.45629892257155397     0.0
     7     1     1     0.7469370331801487     -0.20745480334688138     0.0

Bonds

     1     1     4     6
     2     2     3     6
     3     3     2     7
     4     4     3     7
     5     5     1     7
     6     6     5     7
     7     7     1     2
     8     8     2     3
     9     9     3     4
     10     10     4     5
     11     11     5     1

Bond Coeffs

     1     1     0.7016833718418702
     2     1     0.6498423574238027
     3     1     1.180170458215954
     4     1     0.8650581332411929
     5     1     0.7752112144233053
     6     1     0.32722830043771944
     7     1     1.0011995279407486
     8     1     1.0
     9     1     1.0
     10     1     1.0
     11     1     1.0
