# LAMMPS data file for rigid bodies 
 
      7     atoms
     11     bonds
     0     angles
     0     dihedrals

     2     atom types 
     11     bond types 
     0     angle types
     0     dihedral types

     -6     6 xlo xhi
     -6     6 ylo yhi
     -6     6 zlo zhi

Masses

     1     1
     2     1

Atoms

     1     1     2     1.0     0.0     0.0
     2     1     1     1.7681836025705766     -0.6402296093915764     0.0
     3     1     1     0.8627534857406653     -1.064724961000252     0.0
     4     1     1     -0.13460653844704384     -0.9921096585338147     0.0
     5     1     1     0.0     0.0     0.0
     6     1     1     0.4744494815301038     -0.35492526806909913     0.0
     7     1     1     0.5617981923592662     -1.0005760549454652     0.0

Bonds

     1     1     5     6
     2     2     3     6
     3     3     1     6
     4     4     2     6
     5     5     3     7
     6     6     4     7
     7     7     1     2
     8     8     2     3
     9     9     3     4
     10     10     4     5
     11     11     5     1

Bond Coeffs

     1     1     0.5925151951115737
     2     1     0.8090708274132214
     3     1     0.6341729207226516
     4     1     1.3248194379317575
     5     1     0.30771605541848135
     6     1     0.6964561931360854
     7     1     1.0
     8     1     1.0
     9     1     1.0
     10     1     1.0011995279407486
     11     1     1.0
