LAMMPS (29 Oct 2020)
Processor partition = 9
# LAMMPS task file for neb

      dimension   2
     atom_style bond
     boundary   f f p
     bond_style harmonic
     atom_modify	map array sort 0 0.0

     variable  u uloop 100
     read_data  temp/h_-6779599749597012937_-7482915513354146445_0.txt
Reading data file ...
  orthogonal box = (-6.0000000 -6.0000000 -6.0000000) to (6.0000000 6.0000000 6.0000000)
  1 by 1 by 1 MPI processor grid
  reading atoms ...
  7 atoms
  scanning bonds ...
  3 = max bonds/atom
  reading bonds ...
  11 bonds
Finding 1-2 1-3 1-4 neighbors ...
  special bond factors lj:    0.0      0.0      0.0     
  special bond factors coul:  0.0      0.0      0.0     
     4 = max # of 1-2 neighbors
     9 = max # of 1-3 neighbors
    28 = max # of 1-4 neighbors
     6 = max # of special neighbors
  special bonds CPU = 0.000 seconds
  read_data CPU = 0.082 seconds
     timestep  0.1
     fix 1 all neb 1.0 parallel ideal

     thermo 100
     fix 2 all enforce2d
     dump 1 all atom 10 temp/0dump.neb.$u
     dump 1 all atom 10 temp/0dump.neb.10
      min_style quickmin
     neb 1e-08 0.0 2000 2000 40 final lammps_util/script/prion_neb_pos.lj0
WARNING: Using 'neigh_modify every 1 delay 0 check yes' setting during minimization (../min.cpp:187)
Per MPI rank memory allocation (min/avg/max) = 4.840 | 4.840 | 4.840 Mbytes
Step Temp E_pair E_mol TotEng Press 
       0            0            0  0.010282495  0.010282495 0.0059988481 
     100 1.9870724e-07            0 1.4061194e-07 3.1093243e-07 4.1944572e-07 
     200 4.9909917e-09            0 2.2325043e-09 6.5104971e-09 5.447689e-08 
     300 3.0988802e-10            0 3.3285029e-11 2.9890333e-10 7.4190065e-09 
     400 2.4839393e-09            0 5.8947446e-13 2.1296803e-09 1.3324006e-09 
     500 4.0854907e-09            0 5.3447026e-14 3.5019026e-09 8.6467924e-10 
     600 6.1031581e-09            0 4.5139549e-14 5.2313235e-09 1.1872443e-09 
     700 6.240428e-09            0 3.9422062e-14 5.3489777e-09 -1.1865884e-09 
     800 3.423893e-10            0 6.1020461e-14 2.9353757e-10 -8.0762526e-09 
     900 3.1718253e-10            0 5.3578462e-14 2.7192432e-10 -8.2109505e-09 
    1000 2.0066911e-11            0 4.4872682e-14 1.7245082e-11 -8.124659e-09 
    1100 1.505668e-09            0 6.7444417e-15 1.2905793e-09 2.100512e-09 
    1200 1.1953249e-09            0 3.5737671e-15 1.0245678e-09 1.6070193e-09 
    1300 1.0719994e-09            0 2.4036924e-15 9.1885907e-10 2.0715096e-09 
    1400 1.0392206e-09            0 4.701952e-15 8.9076523e-10 3.7761203e-09 
    1500 7.649888e-10            0 2.9774534e-14 6.5573446e-10 8.012435e-09 
    1600 4.2013124e-10            0 7.2769396e-15 3.6011977e-10 -3.3616966e-09 
    1700 3.5457504e-10            0 1.2088449e-15 3.0392267e-10 1.5744113e-09 
    1800 2.3746866e-10            0 1.1192012e-15 2.0354569e-10 1.1318386e-09 
    1900 9.4850262e-11            0 3.7325469e-16 8.1300598e-11 3.5272919e-10 
    2000 1.7408822e-10            0 4.8233553e-16 1.4921896e-10 -4.8464471e-10 
Loop time of 12.3204 on 1 procs for 2000 steps with 7 atoms

3.9% CPU use with 1 MPI tasks x no OpenMP threads

Minimization stats:
  Stopping criterion = max iterations
  Energy initial, next-to-last, final = 
    0.0102824951994165 6.01343614115465e-16 4.82335530348228e-16
  Force two-norm initial, final = 1.0149977 1.4352454e-05
  Force max component initial, final = 0.48492912 6.8039351e-06
  Final line search alpha, max atom move = 0.0000000 0.0000000
  Iterations, force evaluations = 2000 2000

MPI task timing breakdown:
Section |  min time  |  avg time  |  max time  |%varavg| %total
---------------------------------------------------------------
Pair    | 0          | 0          | 0          |   0.0 |  0.00
Bond    | 0.002688   | 0.002688   | 0.002688   |   0.0 |  0.02
Neigh   | 0          | 0          | 0          |   0.0 |  0.00
Comm    | 0.001398   | 0.001398   | 0.001398   |   0.0 |  0.01
Output  | 0.20223    | 0.20223    | 0.20223    |   0.0 |  1.64
Modify  | 3.8206     | 3.8206     | 3.8206     |   0.0 | 31.01
Other   |            | 8.293      |            |       | 67.31

Nlocal:        7.00000 ave           7 max           7 min
Histogram: 1 0 0 0 0 0 0 0 0 0
Nghost:        0.00000 ave           0 max           0 min
Histogram: 1 0 0 0 0 0 0 0 0 0
Neighs:        0.00000 ave           0 max           0 min
Histogram: 1 0 0 0 0 0 0 0 0 0

Total # of neighbors = 0
Ave neighs/atom = 0.0000000
Ave special neighs/atom = 6.0000000
Neighbor list builds = 0
Dangerous builds = 0
WARNING: Using 'neigh_modify every 1 delay 0 check yes' setting during minimization (../min.cpp:187)
Per MPI rank memory allocation (min/avg/max) = 4.840 | 4.840 | 4.840 Mbytes
Step Temp E_pair E_mol TotEng Press 
    2000            0            0 4.8233553e-16 4.8233553e-16 -4.9189839e-10 
    2100 1.3393209e-09            0 5.8028162e-15 1.1479951e-09 4.3452015e-09 
    2200 6.0750227e-10            0 1.6214803e-15 5.2071786e-10 1.7302606e-09 
    2300 3.1398389e-10            0 6.0763436e-15 2.6913512e-10 -2.9631274e-09 
    2400 2.1476877e-10            0 3.9613303e-16 1.8408791e-10 6.8609728e-10 
    2500 1.8487398e-10            0 2.7042248e-16 1.5846368e-10 5.3165156e-10 
    2600 1.0092204e-10            0 1.026651e-15 8.6505636e-11 1.3365096e-09 
    2700 7.6985787e-11            0 1.0597291e-15 6.5988877e-11 -8.4911731e-10 
    2800 3.0021545e-11            0 2.3130259e-16 2.5732985e-11 -5.6854515e-10 
    2900 2.0820288e-11            0  7.75882e-17 1.7846039e-11 5.3369294e-10 
    3000 1.6406952e-11            0 6.1642469e-18 1.4063108e-11 1.0640123e-10 
    3100 1.4207042e-11            0 1.2986724e-17 1.2177478e-11 2.9367988e-11 
    3200 9.8084156e-12            0 1.0709397e-17 8.407224e-12 1.4071046e-11 
    3300 6.1557338e-12            0 9.7346785e-18 5.276353e-12 1.0111975e-10 
    3400 4.0453103e-12            0 2.5741464e-17 3.4674346e-12 2.6781699e-10 
    3500 2.3658425e-12            0 2.2978388e-17 2.0278879e-12 1.842596e-10 
    3600 1.4188925e-12            0 1.388435e-17 1.2162075e-12 -1.5751001e-10 
    3700 7.6560428e-13            0 8.3130021e-18 6.5624056e-13 -1.1592739e-10 
    3800 4.8783865e-13            0 7.8799209e-18 4.181553e-13 1.0819966e-10 
    3900 3.0489841e-13            0 5.330465e-18 2.6134682e-13 -7.4430814e-11 
    4000 2.4167721e-13            0 1.7555409e-17 2.0716945e-13 -1.6528092e-10 
Loop time of 5.75557 on 1 procs for 2000 steps with 7 atoms

6.2% CPU use with 1 MPI tasks x no OpenMP threads

Minimization stats:
  Stopping criterion = max iterations
  Energy initial, next-to-last, final = 
    4.82335530348228e-16 2.6605810919805e-17 1.75554092757501e-17
  Force two-norm initial, final = 1.8794234e-05 2.1383935e-06
  Force max component initial, final = 8.9050276e-06 1.0136746e-06
  Final line search alpha, max atom move = 0.0000000 0.0000000
  Iterations, force evaluations = 2000 2000

MPI task timing breakdown:
Section |  min time  |  avg time  |  max time  |%varavg| %total
---------------------------------------------------------------
Pair    | 0          | 0          | 0          |   0.0 |  0.00
Bond    | 0.002266   | 0.002266   | 0.002266   |   0.0 |  0.04
Neigh   | 0          | 0          | 0          |   0.0 |  0.00
Comm    | 0.001203   | 0.001203   | 0.001203   |   0.0 |  0.02
Output  | 0.04981    | 0.04981    | 0.04981    |   0.0 |  0.87
Modify  | 1.8197     | 1.8197     | 1.8197     |   0.0 | 31.62
Other   |            | 3.883      |            |       | 67.46

Nlocal:        7.00000 ave           7 max           7 min
Histogram: 1 0 0 0 0 0 0 0 0 0
Nghost:        0.00000 ave           0 max           0 min
Histogram: 1 0 0 0 0 0 0 0 0 0
Neighs:        0.00000 ave           0 max           0 min
Histogram: 1 0 0 0 0 0 0 0 0 0

Total # of neighbors = 0
Ave neighs/atom = 0.0000000
Ave special neighs/atom = 6.0000000
Neighbor list builds = 0
Dangerous builds = 0
Total wall time: 0:00:18
