LAMMPS (29 Oct 2020)
Processor partition = 7
# LAMMPS task file for neb

      dimension   2
     atom_style bond
     boundary   f f p
     bond_style harmonic
     atom_modify	map array sort 0 0.0

     variable  u uloop 20
     read_data  src/polygon/lammps_util/script/test_healty.lj
Reading data file ...
  orthogonal box = (-6.0000000 -6.0000000 -6.0000000) to (6.0000000 6.0000000 6.0000000)
  1 by 1 by 1 MPI processor grid
  reading atoms ...
  7 atoms
  scanning bonds ...
  3 = max bonds/atom
  reading bonds ...
  11 bonds
Finding 1-2 1-3 1-4 neighbors ...
  special bond factors lj:    0.0      0.0      0.0     
  special bond factors coul:  0.0      0.0      0.0     
     4 = max # of 1-2 neighbors
     8 = max # of 1-3 neighbors
    24 = max # of 1-4 neighbors
     6 = max # of special neighbors
  special bonds CPU = 0.000 seconds
  read_data CPU = 0.016 seconds
     timestep  0.1
     fix 1 all neb 1.0 parallel ideal

     thermo 100
     fix 2 all enforce2d
     dump 1 all atom 10 src/polygon/temp/dump.neb.$u
     dump 1 all atom 10 src/polygon/temp/dump.neb.8
      min_style quickmin
     neb 1e-08 0.0 2000 2000 40 final src/polygon/lammps_util/script/prion_neb_pos.lj
WARNING: Using 'neigh_modify every 1 delay 0 check yes' setting during minimization (../min.cpp:187)
Per MPI rank memory allocation (min/avg/max) = 4.840 | 4.840 | 4.840 Mbytes
Step Temp E_pair E_mol TotEng Press 
       0            0            0  0.019289783  0.019289783 0.0059939874 
     100 1.715096e-07            0 6.931612e-08 2.1632435e-07 -3.0614009e-08 
     200 1.6794831e-09            0 6.5063096e-08 6.6502653e-08 2.9577238e-08 
     300 1.0445437e-09            0 6.0986725e-08 6.1882049e-08 3.2082791e-08 
     400 1.4211268e-10            0 5.7581784e-08 5.7703595e-08 3.1043988e-08 
     500 5.6202013e-10            0 5.4466096e-08 5.4947827e-08 2.9997961e-08 
     600 8.6029944e-10            0 5.1406846e-08 5.2144245e-08 2.8938879e-08 
     700 1.0127813e-09            0 4.856412e-08 4.9432219e-08 2.7930996e-08 
     800 9.1523001e-10            0 4.5900082e-08 4.6684565e-08 2.6946242e-08 
     900 8.8578668e-11            0 4.3485885e-08 4.356181e-08 2.6030597e-08 
    1000 1.817028e-10            0 4.1103337e-08 4.1259082e-08 2.5102692e-08 
    1100 7.0538348e-10            0 3.8938545e-08 3.954316e-08 2.4324093e-08 
    1200 3.0724777e-10            0 3.6885864e-08 3.7149219e-08 2.3461995e-08 
    1300 7.9149859e-10            0 3.4974904e-08 3.5653331e-08 2.2770294e-08 
    1400 1.8248958e-10            0 3.3294309e-08 3.3450729e-08 2.2055983e-08 
    1500 5.0659246e-11            0 3.1653815e-08 3.1697237e-08 2.1372744e-08 
    1600 9.9552627e-11            0 3.0138973e-08 3.0224304e-08 2.0739701e-08 
    1700 8.0490813e-11            0 2.8636994e-08 2.8705986e-08 2.0097444e-08 
    1800 7.5204819e-11            0 2.7220053e-08 2.7284515e-08 1.9481313e-08 
    1900 1.5815146e-10            0 2.5919993e-08 2.6055552e-08 1.8909722e-08 
    2000 2.467276e-10            0 2.4682671e-08 2.4894152e-08 1.8356731e-08 
Loop time of 0.51095 on 1 procs for 2000 steps with 7 atoms

22.2% CPU use with 1 MPI tasks x no OpenMP threads

Minimization stats:
  Stopping criterion = max iterations
  Energy initial, next-to-last, final = 
    0.0192897827255895 2.46966828147403e-08 2.46826712428191e-08
  Force two-norm initial, final = 1.2810053 1.8887289e-05
  Force max component initial, final = 0.69273114 7.7544492e-06
  Final line search alpha, max atom move = 0.0000000 0.0000000
  Iterations, force evaluations = 2000 2000

MPI task timing breakdown:
Section |  min time  |  avg time  |  max time  |%varavg| %total
---------------------------------------------------------------
Pair    | 0          | 0          | 0          |   0.0 |  0.00
Bond    | 0.001022   | 0.001022   | 0.001022   |   0.0 |  0.20
Neigh   | 0          | 0          | 0          |   0.0 |  0.00
Comm    | 0.000407   | 0.000407   | 0.000407   |   0.0 |  0.08
Output  | 0.23146    | 0.23146    | 0.23146    |   0.0 | 45.30
Modify  | 0.0909     | 0.0909     | 0.0909     |   0.0 | 17.79
Other   |            | 0.1872     |            |       | 36.63

Nlocal:        7.00000 ave           7 max           7 min
Histogram: 1 0 0 0 0 0 0 0 0 0
Nghost:        0.00000 ave           0 max           0 min
Histogram: 1 0 0 0 0 0 0 0 0 0
Neighs:        0.00000 ave           0 max           0 min
Histogram: 1 0 0 0 0 0 0 0 0 0

Total # of neighbors = 0
Ave neighs/atom = 0.0000000
Ave special neighs/atom = 6.0000000
Neighbor list builds = 0
Dangerous builds = 0
WARNING: Using 'neigh_modify every 1 delay 0 check yes' setting during minimization (../min.cpp:187)
Per MPI rank memory allocation (min/avg/max) = 4.840 | 4.840 | 4.840 Mbytes
Step Temp E_pair E_mol TotEng Press 
    2000            0            0 2.4682671e-08 2.4682671e-08 1.834645e-08 
    2100 1.7613365e-10            0 2.3551148e-08 2.370212e-08 1.845557e-08 
    2200 2.8834596e-10            0 2.2432039e-08 2.2679192e-08 1.7947749e-08 
    2300 2.9449569e-10            0 2.1404542e-08 2.1656967e-08 1.7454835e-08 
    2400 1.8537897e-10            0 2.0409464e-08 2.0568361e-08 1.6963895e-08 
    2500 2.9561927e-10            0 1.9441636e-08 1.9695024e-08 1.6479248e-08 
    2600 4.7527449e-11            0 1.8590846e-08 1.8631583e-08 1.6046152e-08 
    2700 4.3603625e-11            0 1.7722771e-08 1.7760145e-08 1.5599155e-08 
    2800 6.2503637e-11            0 1.694592e-08 1.6999495e-08 1.5193168e-08 
    2900 4.5783091e-11            0 1.6137822e-08 1.6177065e-08 1.4789683e-08 
    3000 5.9168085e-11            0 1.5418744e-08 1.5469459e-08 1.4401366e-08 
    3100 4.6873836e-11            0 1.4768333e-08 1.4808511e-08 1.401381e-08 
    3200 5.8943157e-11            0 1.4144512e-08 1.4195034e-08 1.3664947e-08 
    3300 1.3174954e-10            0 1.3535816e-08 1.3648744e-08 1.3321451e-08 
    3400 7.4820708e-11            0 1.2949293e-08 1.3013425e-08 1.2979683e-08 
    3500 1.2945706e-10            0 1.2392894e-08 1.2503858e-08 1.2654495e-08 
    3600 1.9402393e-10            0 1.1858001e-08 1.2024307e-08 1.2318396e-08 
    3700 1.0637526e-10            0 1.1354253e-08 1.1445431e-08 1.1981107e-08 
    3800 1.5844858e-10            0 1.0884401e-08 1.1020214e-08 1.1738752e-08 
    3900 1.5473954e-11            0 1.0425171e-08 1.0438434e-08 1.144347e-08 
    4000 8.8451085e-11            0 1.0023939e-08 1.0099754e-08 1.1191114e-08 
Loop time of 0.098432 on 1 procs for 2000 steps with 7 atoms

61.1% CPU use with 1 MPI tasks x no OpenMP threads

Minimization stats:
  Stopping criterion = max iterations
  Energy initial, next-to-last, final = 
    2.46826712428191e-08 1.00288904615343e-08 1.00239385078076e-08
  Force two-norm initial, final = 1.8814834e-05 1.1178441e-05
  Force max component initial, final = 8.1317494e-06 5.7208380e-06
  Final line search alpha, max atom move = 0.0000000 0.0000000
  Iterations, force evaluations = 2000 2000

MPI task timing breakdown:
Section |  min time  |  avg time  |  max time  |%varavg| %total
---------------------------------------------------------------
Pair    | 0          | 0          | 0          |   0.0 |  0.00
Bond    | 0.000729   | 0.000729   | 0.000729   |   0.0 |  0.74
Neigh   | 0          | 0          | 0          |   0.0 |  0.00
Comm    | 0.000222   | 0.000222   | 0.000222   |   0.0 |  0.23
Output  | 0.026562   | 0.026562   | 0.026562   |   0.0 | 26.99
Modify  | 0.025287   | 0.025287   | 0.025287   |   0.0 | 25.69
Other   |            | 0.04563    |            |       | 46.36

Nlocal:        7.00000 ave           7 max           7 min
Histogram: 1 0 0 0 0 0 0 0 0 0
Nghost:        0.00000 ave           0 max           0 min
Histogram: 1 0 0 0 0 0 0 0 0 0
Neighs:        0.00000 ave           0 max           0 min
Histogram: 1 0 0 0 0 0 0 0 0 0

Total # of neighbors = 0
Ave neighs/atom = 0.0000000
Ave special neighs/atom = 6.0000000
Neighbor list builds = 0
Dangerous builds = 0
Total wall time: 0:00:00
