LAMMPS (29 Oct 2020)
Processor partition = 68
# LAMMPS task file for neb

      dimension   2
     atom_style bond
     boundary   f f p
     bond_style harmonic
     atom_modify	map array sort 0 0.0

     variable  u uloop 100
     read_data  temp/h_-6779599749597012937_-7482915513354146445_0.txt
Reading data file ...
  orthogonal box = (-6.0000000 -6.0000000 -6.0000000) to (6.0000000 6.0000000 6.0000000)
  1 by 1 by 1 MPI processor grid
  reading atoms ...
  7 atoms
  scanning bonds ...
  3 = max bonds/atom
  reading bonds ...
  11 bonds
Finding 1-2 1-3 1-4 neighbors ...
  special bond factors lj:    0.0      0.0      0.0     
  special bond factors coul:  0.0      0.0      0.0     
     4 = max # of 1-2 neighbors
     9 = max # of 1-3 neighbors
    28 = max # of 1-4 neighbors
     6 = max # of special neighbors
  special bonds CPU = 0.000 seconds
  read_data CPU = 0.090 seconds
     timestep  0.1
     fix 1 all neb 1.0 parallel ideal

     thermo 100
     fix 2 all enforce2d
     dump 1 all atom 10 temp/0dump.neb.$u
     dump 1 all atom 10 temp/0dump.neb.69
      min_style quickmin
     neb 1e-08 0.0 2000 2000 40 final lammps_util/script/prion_neb_pos.lj0
WARNING: Using 'neigh_modify every 1 delay 0 check yes' setting during minimization (../min.cpp:187)
Per MPI rank memory allocation (min/avg/max) = 4.840 | 4.840 | 4.840 Mbytes
Step Temp E_pair E_mol TotEng Press 
       0            0            0  0.014110646  0.014110646 0.0069343958 
     100 4.5515369e-07            0 1.2088805e-06 1.5990123e-06 6.1279399e-07 
     200 2.1587635e-07            0 3.5579724e-07 5.4083411e-07 3.2077224e-07 
     300 6.2090149e-09            0 8.5945175e-08 9.1267187e-08 1.4207473e-07 
     400 1.5122219e-08            0 1.9211777e-08 3.217368e-08 6.6234504e-08 
     500 8.130099e-09            0 3.9119252e-09 1.0880582e-08 3.0142119e-08 
     600 9.5197712e-09            0 7.6490776e-10 8.9247116e-09 1.5346156e-08 
     700 9.131703e-09            0 1.477301e-10 7.9749041e-09 3.7026578e-09 
     800 1.5864282e-09            0 3.5528897e-11 1.3953245e-09 -3.5699211e-09 
     900 1.3646455e-09            0 8.7843995e-12 1.1784805e-09 -4.5237408e-09 
    1000 1.6316598e-09            0 2.2178978e-12 1.4007834e-09 6.7330925e-10 
    1100 3.0096088e-09            0 5.6656566e-13 2.5802313e-09 5.5913465e-09 
    1200 2.1165973e-09            0 1.522529e-13 1.8143785e-09 4.1701386e-09 
    1300 1.7221764e-09            0 4.7077294e-14 1.4761983e-09  3.83153e-09 
    1400 1.5623008e-09            0 1.9800526e-14 1.3391348e-09 4.2536303e-09 
    1500 1.0408941e-09            0 1.4409502e-14 8.9220938e-10 4.6432084e-09 
    1600 6.3373578e-10            0 7.9823244e-15 5.4321008e-10 -2.6263264e-09 
    1700 5.4179427e-10            0 3.3263161e-15 4.6439842e-10 2.1951062e-09 
    1800 3.4601249e-10            0 1.5752131e-15 2.9658371e-10 5.061081e-10 
    1900 1.463809e-10            0 1.2296969e-15 1.2547057e-10 6.286922e-10 
    2000 2.2970068e-10            0 4.0885676e-15 1.9689039e-10 2.9108679e-09 
Loop time of 12.3163 on 1 procs for 2000 steps with 7 atoms

3.7% CPU use with 1 MPI tasks x no OpenMP threads

Minimization stats:
  Stopping criterion = max iterations
  Energy initial, next-to-last, final = 
    0.0141106458160646 3.05318645296905e-15 4.08856755422638e-15
  Force two-norm initial, final = 1.1807871 1.9284602e-05
  Force max component initial, final = 0.53648421 1.1654881e-05
  Final line search alpha, max atom move = 0.0000000 0.0000000
  Iterations, force evaluations = 2000 2000

MPI task timing breakdown:
Section |  min time  |  avg time  |  max time  |%varavg| %total
---------------------------------------------------------------
Pair    | 0          | 0          | 0          |   0.0 |  0.00
Bond    | 0.002949   | 0.002949   | 0.002949   |   0.0 |  0.02
Neigh   | 0          | 0          | 0          |   0.0 |  0.00
Comm    | 0.001448   | 0.001448   | 0.001448   |   0.0 |  0.01
Output  | 0.2057     | 0.2057     | 0.2057     |   0.0 |  1.67
Modify  | 3.7088     | 3.7088     | 3.7088     |   0.0 | 30.11
Other   |            | 8.397      |            |       | 68.18

Nlocal:        7.00000 ave           7 max           7 min
Histogram: 1 0 0 0 0 0 0 0 0 0
Nghost:        0.00000 ave           0 max           0 min
Histogram: 1 0 0 0 0 0 0 0 0 0
Neighs:        0.00000 ave           0 max           0 min
Histogram: 1 0 0 0 0 0 0 0 0 0

Total # of neighbors = 0
Ave neighs/atom = 0.0000000
Ave special neighs/atom = 6.0000000
Neighbor list builds = 0
Dangerous builds = 0
WARNING: Using 'neigh_modify every 1 delay 0 check yes' setting during minimization (../min.cpp:187)
Per MPI rank memory allocation (min/avg/max) = 4.840 | 4.840 | 4.840 Mbytes
Step Temp E_pair E_mol TotEng Press 
    2000            0            0 4.0885676e-15 4.0885676e-15 2.901297e-09 
    2100 4.6427565e-10            0 7.9579773e-16 3.9795135e-10 -1.0836923e-09 
    2200 4.0101342e-10            0 9.4202198e-16 3.4372673e-10 -8.662379e-10 
    2300 2.0502945e-10            0 6.1597942e-16 1.7574014e-10 -6.2071787e-10 
    2400 2.8799018e-11            0 3.1311094e-16 2.4685186e-11 -3.8533595e-10 
    2500 1.1391743e-11            0 1.3810626e-16 9.7644894e-12 -2.2321154e-10 
    2600 1.3588222e-11            0 5.7022692e-17 1.1647105e-11 -1.5143972e-10 
    2700 1.4580082e-12            0 2.1291644e-17 1.2497426e-12 -7.6762265e-11 
    2800 4.1323429e-13            0   7.8964e-18 3.5420872e-13 -4.8073989e-11 
    2900 2.6366687e-13            0 2.8369415e-18 2.2600301e-13 -2.5668417e-11 
    3000 5.4217932e-14            0 9.8865741e-19 4.6473502e-14 -1.3961337e-11 
    3100 1.4506453e-14            0 3.034095e-19 1.2434406e-14 -6.3538039e-12 
    3200 5.4917292e-16            0 7.3909688e-20 4.7079355e-16 -1.5805982e-12 
    3300 1.0853088e-15            0 1.3387495e-20 9.3027811e-16 1.3392913e-12 
    3400 3.7583982e-15            0 6.5662786e-21 3.2214908e-15 2.9689567e-12 
    3500 5.037893e-15            0 1.1915045e-20 4.3182059e-15 3.7650934e-12 
    3600 5.4678145e-15            0 1.6883185e-20 4.686715e-15 4.0328513e-12 
    3700 5.0799805e-15            0 1.8931549e-20 4.354288e-15 3.991398e-12 
    3800 4.2698793e-15            0 1.849176e-20 3.6599151e-15 3.7717265e-12 
    3900 3.3570784e-15            0 1.6568949e-20 2.8775124e-15 3.4616649e-12 
    4000 2.5761361e-15            0 1.3999664e-20 2.2081306e-15 3.1114438e-12 
Loop time of 5.75556 on 1 procs for 2000 steps with 7 atoms

5.8% CPU use with 1 MPI tasks x no OpenMP threads

Minimization stats:
  Stopping criterion = max iterations
  Energy initial, next-to-last, final = 
    4.08856755422638e-15 1.39858181825786e-20 1.39996637690066e-20
  Force two-norm initial, final = 9.9344004e-06 9.0355013e-08
  Force max component initial, final = 6.0892074e-06 5.3866287e-08
  Final line search alpha, max atom move = 0.0000000 0.0000000
  Iterations, force evaluations = 2000 2000

MPI task timing breakdown:
Section |  min time  |  avg time  |  max time  |%varavg| %total
---------------------------------------------------------------
Pair    | 0          | 0          | 0          |   0.0 |  0.00
Bond    | 0.002485   | 0.002485   | 0.002485   |   0.0 |  0.04
Neigh   | 0          | 0          | 0          |   0.0 |  0.00
Comm    | 0.001112   | 0.001112   | 0.001112   |   0.0 |  0.02
Output  | 0.049974   | 0.049974   | 0.049974   |   0.0 |  0.87
Modify  | 1.7778     | 1.7778     | 1.7778     |   0.0 | 30.89
Other   |            | 3.924      |            |       | 68.18

Nlocal:        7.00000 ave           7 max           7 min
Histogram: 1 0 0 0 0 0 0 0 0 0
Nghost:        0.00000 ave           0 max           0 min
Histogram: 1 0 0 0 0 0 0 0 0 0
Neighs:        0.00000 ave           0 max           0 min
Histogram: 1 0 0 0 0 0 0 0 0 0

Total # of neighbors = 0
Ave neighs/atom = 0.0000000
Ave special neighs/atom = 6.0000000
Neighbor list builds = 0
Dangerous builds = 0
Total wall time: 0:00:18
