LAMMPS (29 Oct 2020)
Processor partition = 65
# LAMMPS task file for neb

      dimension   2
     atom_style bond
     boundary   f f p
     bond_style harmonic
     atom_modify	map array sort 0 0.0

     variable  u uloop 100
     read_data  temp/h_-6779599749597012937_-7482915513354146445_0.txt
Reading data file ...
  orthogonal box = (-6.0000000 -6.0000000 -6.0000000) to (6.0000000 6.0000000 6.0000000)
  1 by 1 by 1 MPI processor grid
  reading atoms ...
  7 atoms
  scanning bonds ...
  3 = max bonds/atom
  reading bonds ...
  11 bonds
Finding 1-2 1-3 1-4 neighbors ...
  special bond factors lj:    0.0      0.0      0.0     
  special bond factors coul:  0.0      0.0      0.0     
     4 = max # of 1-2 neighbors
     9 = max # of 1-3 neighbors
    28 = max # of 1-4 neighbors
     6 = max # of special neighbors
  special bonds CPU = 0.000 seconds
  read_data CPU = 0.064 seconds
     timestep  0.1
     fix 1 all neb 1.0 parallel ideal

     thermo 100
     fix 2 all enforce2d
     dump 1 all atom 10 temp/0dump.neb.$u
     dump 1 all atom 10 temp/0dump.neb.66
      min_style quickmin
     neb 1e-08 0.0 2000 2000 40 final lammps_util/script/prion_neb_pos.lj0
WARNING: Using 'neigh_modify every 1 delay 0 check yes' setting during minimization (../min.cpp:187)
Per MPI rank memory allocation (min/avg/max) = 4.840 | 4.840 | 4.840 Mbytes
Step Temp E_pair E_mol TotEng Press 
       0            0            0   0.02159468   0.02159468 0.0083724678 
     100 7.0461165e-07            0 2.2669497e-06 2.8709026e-06 9.1528334e-07 
     200 4.224119e-07            0 8.1272037e-07 1.1747877e-06 4.9009694e-07 
     300 1.5004554e-08            0 2.254003e-07 2.3826134e-07 2.3540162e-07 
     400 3.6903909e-08            0 5.4255258e-08 8.588718e-08 1.1392889e-07 
     500 1.5956165e-08            0 1.1492154e-08 2.5168866e-08 5.2137985e-08 
     600 1.5967463e-08            0 2.2967515e-09 1.5983148e-08 2.5713103e-08 
     700 1.5515519e-08            0 4.4959017e-10 1.3748606e-08 8.0626427e-09 
     800 3.8177414e-09            0 1.0888391e-10 3.3812337e-09 -6.2613316e-10 
     900 2.6990205e-09            0 2.6979956e-11 2.3404261e-09 -4.1820214e-09 
    1000 3.5162051e-09            0 6.7964685e-12 3.0206865e-09 3.3270246e-09 
    1100 5.0678615e-09            0 1.7054732e-12 4.3455868e-09 7.9564387e-09 
    1200 3.5134566e-09            0 4.4125846e-13 3.0119755e-09 5.8344508e-09 
    1300 2.824013e-09            0 1.2634244e-13 2.4207089e-09 5.2726636e-09 
    1400 2.5301538e-09            0 4.6487256e-14 2.1687498e-09 5.7750812e-09 
    1500 1.6395131e-09            0 2.8492531e-14 1.4053254e-09 6.1321313e-09 
    1600 1.0300831e-09            0 1.542659e-14 8.829438e-10 -3.5367861e-09 
    1700 8.8360031e-10            0 6.3637622e-15 7.5737806e-10 2.9874237e-09 
    1800 5.5537188e-10            0 2.9549726e-15  4.76036e-10 6.4825256e-10 
    1900 2.4359572e-10            0 2.2740553e-15 2.087986e-10 8.7603379e-10 
    2000 3.6200447e-10            0 7.3072487e-15 3.1029685e-10 3.8719055e-09 
Loop time of 12.321 on 1 procs for 2000 steps with 7 atoms

3.6% CPU use with 1 MPI tasks x no OpenMP threads

Minimization stats:
  Stopping criterion = max iterations
  Energy initial, next-to-last, final = 
    0.0215946795373707 5.48173850131303e-15 7.3072487221215e-15
  Force two-norm initial, final = 1.4708494 2.5022212e-05
  Force max component initial, final = 0.68451844 1.4997774e-05
  Final line search alpha, max atom move = 0.0000000 0.0000000
  Iterations, force evaluations = 2000 2000

MPI task timing breakdown:
Section |  min time  |  avg time  |  max time  |%varavg| %total
---------------------------------------------------------------
Pair    | 0          | 0          | 0          |   0.0 |  0.00
Bond    | 0.002906   | 0.002906   | 0.002906   |   0.0 |  0.02
Neigh   | 2e-06      | 2e-06      | 2e-06      |   0.0 |  0.00
Comm    | 0.001367   | 0.001367   | 0.001367   |   0.0 |  0.01
Output  | 0.19504    | 0.19504    | 0.19504    |   0.0 |  1.58
Modify  | 3.6378     | 3.6378     | 3.6378     |   0.0 | 29.53
Other   |            | 8.484      |            |       | 68.86

Nlocal:        7.00000 ave           7 max           7 min
Histogram: 1 0 0 0 0 0 0 0 0 0
Nghost:        0.00000 ave           0 max           0 min
Histogram: 1 0 0 0 0 0 0 0 0 0
Neighs:        0.00000 ave           0 max           0 min
Histogram: 1 0 0 0 0 0 0 0 0 0

Total # of neighbors = 0
Ave neighs/atom = 0.0000000
Ave special neighs/atom = 6.0000000
Neighbor list builds = 1
Dangerous builds = 0
WARNING: Using 'neigh_modify every 1 delay 0 check yes' setting during minimization (../min.cpp:187)
Per MPI rank memory allocation (min/avg/max) = 4.840 | 4.840 | 4.840 Mbytes
Step Temp E_pair E_mol TotEng Press 
    2000            0            0 7.3072487e-15 7.3072487e-15 3.856822e-09 
    2100 7.5250842e-10            0 1.4472544e-15 6.4500867e-10 -1.4582767e-09 
    2200 6.4979158e-10            0 1.7114097e-15 5.5696592e-10 -1.1648623e-09 
    2300 3.3215658e-10            0 1.1190361e-15 2.8470676e-10 -8.3511956e-10 
    2400 4.664409e-11            0 5.6881349e-16 3.9981218e-11 -5.1912498e-10 
    2500 1.8459674e-11            0 2.5094199e-16 1.5822829e-11 -3.008815e-10 
    2600 2.2017703e-11            0 1.0364831e-16 1.8872421e-11 -2.043818e-10 
    2700 2.3623116e-12            0 3.8694242e-17 2.0248772e-12 -1.034891e-10 
    2800 6.6923316e-13            0 1.435077e-17 5.7364277e-13 -6.4794783e-11 
    2900 4.269496e-13            0 5.1554874e-18 3.6596196e-13 -3.4547535e-11 
    3000 8.7742619e-14            0 1.7966121e-18 7.5209756e-14 -1.8774595e-11 
    3100 2.3437041e-14            0 5.5122237e-19 2.0089444e-14 -8.4877189e-12 
    3200 8.7357696e-16            0 1.3424707e-19 7.489145e-16 -2.0255429e-12 
    3300 1.7815172e-15            0 2.4402113e-20 1.5270391e-15 1.9153397e-12 
    3400 6.1234109e-15            0 1.2064197e-20  5.24865e-15 4.0900033e-12 
    3500 8.1901516e-15            0 2.1772292e-20 7.0201517e-15 5.1362327e-12 
    3600 8.8763959e-15            0  3.07654e-20 7.6083701e-15 5.4744602e-12 
    3700 8.2381834e-15            0 3.4450203e-20 7.0613345e-15 5.3995784e-12 
    3800 6.9194023e-15            0 3.3625243e-20 5.9309499e-15 5.0908315e-12 
    3900 5.4374249e-15            0 3.011691e-20  4.66068e-15 4.6656553e-12 
    4000 4.1710504e-15            0 2.5441257e-20 3.5752115e-15 4.1899235e-12 
Loop time of 5.75079 on 1 procs for 2000 steps with 7 atoms

5.7% CPU use with 1 MPI tasks x no OpenMP threads

Minimization stats:
  Stopping criterion = max iterations
  Energy initial, next-to-last, final = 
    7.3072487221215e-15 2.54330129025392e-20 2.54412572824121e-20
  Force two-norm initial, final = 1.3122465e-05 1.1502776e-07
  Force max component initial, final = 7.9866333e-06 6.7909293e-08
  Final line search alpha, max atom move = 0.0000000 0.0000000
  Iterations, force evaluations = 2000 2000

MPI task timing breakdown:
Section |  min time  |  avg time  |  max time  |%varavg| %total
---------------------------------------------------------------
Pair    | 0          | 0          | 0          |   0.0 |  0.00
Bond    | 0.002466   | 0.002466   | 0.002466   |   0.0 |  0.04
Neigh   | 0          | 0          | 0          |   0.0 |  0.00
Comm    | 0.001181   | 0.001181   | 0.001181   |   0.0 |  0.02
Output  | 0.050554   | 0.050554   | 0.050554   |   0.0 |  0.88
Modify  | 1.7401     | 1.7401     | 1.7401     |   0.0 | 30.26
Other   |            | 3.956      |            |       | 68.80

Nlocal:        7.00000 ave           7 max           7 min
Histogram: 1 0 0 0 0 0 0 0 0 0
Nghost:        0.00000 ave           0 max           0 min
Histogram: 1 0 0 0 0 0 0 0 0 0
Neighs:        0.00000 ave           0 max           0 min
Histogram: 1 0 0 0 0 0 0 0 0 0

Total # of neighbors = 0
Ave neighs/atom = 0.0000000
Ave special neighs/atom = 6.0000000
Neighbor list builds = 0
Dangerous builds = 0
Total wall time: 0:00:18
