LAMMPS (29 Oct 2020)
Processor partition = 1
# LAMMPS task file for neb

      dimension   2
     atom_style bond
     boundary   f f p
     bond_style harmonic
     atom_modify	map array sort 0 0.0

     variable  u uloop 20
     read_data  src/polygon/lammps_util/script/test_healty.lj
Reading data file ...
  orthogonal box = (-6.0000000 -6.0000000 -6.0000000) to (6.0000000 6.0000000 6.0000000)
  1 by 1 by 1 MPI processor grid
  reading atoms ...
  7 atoms
  scanning bonds ...
  3 = max bonds/atom
  reading bonds ...
  11 bonds
Finding 1-2 1-3 1-4 neighbors ...
  special bond factors lj:    0.0      0.0      0.0     
  special bond factors coul:  0.0      0.0      0.0     
     4 = max # of 1-2 neighbors
     8 = max # of 1-3 neighbors
    24 = max # of 1-4 neighbors
     6 = max # of special neighbors
  special bonds CPU = 0.000 seconds
  read_data CPU = 0.016 seconds
     timestep  0.1
     fix 1 all neb 1.0 parallel ideal

     thermo 100
     fix 2 all enforce2d
     dump 1 all atom 10 src/polygon/temp/dump.neb.$u
     dump 1 all atom 10 src/polygon/temp/dump.neb.2
      min_style quickmin
     neb 1e-08 0.0 2000 2000 40 final src/polygon/lammps_util/script/prion_neb_pos.lj
WARNING: Using 'neigh_modify every 1 delay 0 check yes' setting during minimization (../min.cpp:187)
Per MPI rank memory allocation (min/avg/max) = 4.840 | 4.840 | 4.840 Mbytes
Step Temp E_pair E_mol TotEng Press 
       0            0            0 0.0022212432 0.0022212432 0.0022850639 
     100 1.1220377e-08            0 2.1085614e-10 9.828322e-09 4.4112595e-08 
     200 4.331768e-11            0 6.0597645e-12 4.3189204e-11 1.0181718e-09 
     300 5.2939642e-13            0 5.9555264e-12 6.4092947e-12 1.3449652e-10 
     400 3.7962309e-14            0 5.8713853e-12 5.9039244e-12  1.03738e-10 
     500 1.5861959e-13            0 5.790208e-12 5.9261676e-12 1.0300452e-10 
     600 2.6817133e-13            0 5.7059467e-12 5.9358078e-12 1.0386993e-10 
     700 3.4742691e-13            0 5.623141e-12 5.9209355e-12 1.045482e-10 
     800 3.5019149e-13            0 5.5411581e-12 5.8413222e-12 1.0738923e-10 
     900 3.6359255e-14            0 5.4628038e-12 5.4939689e-12 1.0560923e-10 
    1000 9.5277188e-14            0 5.3812853e-12 5.4629514e-12 1.1216592e-10 
    1100 3.4322882e-13            0 5.3032251e-12 5.5974213e-12 1.0661269e-10 
    1200 1.7980637e-13            0 5.2253263e-12 5.379446e-12 1.1463799e-10 
    1300 4.4626279e-13            0 5.1490615e-12 5.5315724e-12 1.057614e-10 
    1400 1.1133519e-13            0 5.0787091e-12 5.1741392e-12 1.072342e-10 
    1500 3.5972138e-14            0 5.0067888e-12 5.037622e-12 1.075272e-10 
    1600 6.9625786e-14            0 4.9372631e-12 4.9969424e-12 1.0746252e-10 
    1700 6.0255271e-14            0 4.8650978e-12 4.9167452e-12 1.0751024e-10 
    1800 6.0147131e-14            0 4.7937922e-12 4.8453469e-12 1.0751317e-10 
    1900 1.346277e-13            0 4.7253546e-12 4.8407497e-12 1.0747869e-10 
    2000 2.2329683e-13            0 4.6572949e-12 4.8486922e-12 1.0740736e-10 
Loop time of 0.510837 on 1 procs for 2000 steps with 7 atoms

22.1% CPU use with 1 MPI tasks x no OpenMP threads

Minimization stats:
  Stopping criterion = max iterations
  Energy initial, next-to-last, final = 
    0.00222124320845455 4.65808257281188e-12 4.65729494559113e-12
  Force two-norm initial, final = 0.40973053 5.6840363e-07
  Force max component initial, final = 0.23795357 3.7946501e-07
  Final line search alpha, max atom move = 0.0000000 0.0000000
  Iterations, force evaluations = 2000 2000

MPI task timing breakdown:
Section |  min time  |  avg time  |  max time  |%varavg| %total
---------------------------------------------------------------
Pair    | 0          | 0          | 0          |   0.0 |  0.00
Bond    | 0.001073   | 0.001073   | 0.001073   |   0.0 |  0.21
Neigh   | 0          | 0          | 0          |   0.0 |  0.00
Comm    | 0.000501   | 0.000501   | 0.000501   |   0.0 |  0.10
Output  | 0.23053    | 0.23053    | 0.23053    |   0.0 | 45.13
Modify  | 0.094228   | 0.094228   | 0.094228   |   0.0 | 18.45
Other   |            | 0.1845     |            |       | 36.12

Nlocal:        7.00000 ave           7 max           7 min
Histogram: 1 0 0 0 0 0 0 0 0 0
Nghost:        0.00000 ave           0 max           0 min
Histogram: 1 0 0 0 0 0 0 0 0 0
Neighs:        0.00000 ave           0 max           0 min
Histogram: 1 0 0 0 0 0 0 0 0 0

Total # of neighbors = 0
Ave neighs/atom = 0.0000000
Ave special neighs/atom = 6.0000000
Neighbor list builds = 0
Dangerous builds = 0
WARNING: Using 'neigh_modify every 1 delay 0 check yes' setting during minimization (../min.cpp:187)
Per MPI rank memory allocation (min/avg/max) = 4.840 | 4.840 | 4.840 Mbytes
Step Temp E_pair E_mol TotEng Press 
    2000            0            0 4.6572949e-12 4.6572949e-12 1.0739806e-10 
    2100 2.639096e-12            0 4.5880997e-12 6.8501819e-12 3.275897e-10 
    2200 4.4946671e-12            0 4.5165808e-12 8.3691526e-12 3.2504316e-10 
    2300 4.7695586e-12            0 4.4482042e-12 8.5363973e-12 3.223806e-10 
    2400 3.1208871e-12            0 4.3793001e-12 7.0543462e-12 3.1958667e-10 
    2500 5.1755145e-12            0 4.3095325e-12 8.7456877e-12 3.1688201e-10 
    2600 8.6248206e-13            0 4.2457745e-12 4.9850448e-12  3.14127e-10 
    2700 8.2181445e-13            0 4.1781863e-12 4.8825987e-12 3.1136333e-10 
    2800 1.2201601e-12            0 4.1153537e-12 5.1612052e-12 3.0878277e-10 
    2900 9.2501993e-13            0 4.0474469e-12 4.8403211e-12 3.0572435e-10 
    3000 1.2394627e-12            0 3.9846581e-12 5.0470547e-12 3.0329664e-10 
    3100 1.0176715e-12            0 3.9257954e-12 4.7980852e-12 3.0077799e-10 
    3200 1.3223352e-12            0 3.8673507e-12 5.0007808e-12 2.9827201e-10 
    3300 3.0549459e-12            0 3.8083051e-12 6.4268302e-12 2.9577449e-10 
    3400 1.7935498e-12            0 3.7493822e-12 5.2867106e-12 2.9313235e-10 
    3500 3.2057539e-12            0 3.691505e-12 6.439294e-12 2.9062151e-10 
    3600  4.96543e-12            0 3.6339089e-12 7.8899918e-12 2.8810587e-10 
    3700 2.8144251e-12            0 3.5777814e-12 5.9901458e-12 2.8547213e-10 
    3800 4.3137033e-12            0 3.5236604e-12 7.2211203e-12 2.8306809e-10 
    3900 4.3499633e-13            0 3.4689903e-12 3.8418443e-12 2.8038439e-10 
    4000 2.554719e-12            0 3.4196888e-12 5.6094479e-12 2.7817295e-10 
Loop time of 0.098422 on 1 procs for 2000 steps with 7 atoms

61.0% CPU use with 1 MPI tasks x no OpenMP threads

Minimization stats:
  Stopping criterion = max iterations
  Energy initial, next-to-last, final = 
    4.65729494559113e-12 3.42030642007273e-12 3.4196888243528e-12
  Force two-norm initial, final = 9.2384131e-07 1.9001012e-06
  Force max component initial, final = 5.8276805e-07 1.1311140e-06
  Final line search alpha, max atom move = 0.0000000 0.0000000
  Iterations, force evaluations = 2000 2000

MPI task timing breakdown:
Section |  min time  |  avg time  |  max time  |%varavg| %total
---------------------------------------------------------------
Pair    | 0          | 0          | 0          |   0.0 |  0.00
Bond    | 0.000747   | 0.000747   | 0.000747   |   0.0 |  0.76
Neigh   | 0          | 0          | 0          |   0.0 |  0.00
Comm    | 0.00024    | 0.00024    | 0.00024    |   0.0 |  0.24
Output  | 0.026659   | 0.026659   | 0.026659   |   0.0 | 27.09
Modify  | 0.025631   | 0.025631   | 0.025631   |   0.0 | 26.04
Other   |            | 0.04514    |            |       | 45.87

Nlocal:        7.00000 ave           7 max           7 min
Histogram: 1 0 0 0 0 0 0 0 0 0
Nghost:        0.00000 ave           0 max           0 min
Histogram: 1 0 0 0 0 0 0 0 0 0
Neighs:        0.00000 ave           0 max           0 min
Histogram: 1 0 0 0 0 0 0 0 0 0

Total # of neighbors = 0
Ave neighs/atom = 0.0000000
Ave special neighs/atom = 6.0000000
Neighbor list builds = 0
Dangerous builds = 0
Total wall time: 0:00:00
