LAMMPS (29 Oct 2020)
Running on 12 partitions of processors
Step MaxReplicaForce MaxAtomForce GradV0 GradV1 GradVc EBF EBR RDT RD1 PE1 RD2 PE2 ... RDN PEN
0    1.3683162   0.59421017            0  0.092174628    1.3417971  0.022838239  0.022686521    3.7688786            0            0  0.090909091 0.0022212432   0.18181818 0.0075253188   0.27272727  0.013902981   0.36363636  0.019517704   0.45454545  0.022838239   0.54545455   0.02275469   0.63636364  0.019289783   0.72727273  0.013596169   0.81818182 0.0072405041   0.90909091 0.0020845086            1 0.00015171718 
40 0.0072901556 1.0704561e-05            0 0.0012577292 0.0073206277  4.50253e-05 4.468593e-05    3.8479821            0            0  0.090859391 1.9464114e-07   0.18172192 7.9018552e-07   0.27259982 2.272371e-06   0.36368028 9.1096811e-06   0.45466612  4.50253e-05   0.54568408 2.2149927e-07   0.63657236 7.4262981e-08   0.72743029 7.4154967e-08   0.81828864 4.975417e-08   0.90914599 6.3416018e-08            1 3.3936965e-07 
80 0.0052205499 1.3973457e-05            0 3.2863452e-05 0.0032125174 6.4493892e-06 6.4458152e-06     3.871642            0            0  0.090881026 9.3801804e-10   0.18176217 4.0718399e-09   0.27264379 1.7532344e-08   0.36356278 2.3707885e-07   0.45457938 6.4493892e-06   0.54559772 2.2576465e-08   0.63647533 6.9878462e-08   0.72735628 6.962179e-08   0.81823721 4.8283886e-08   0.90911844 2.2070509e-07            1 3.5740635e-09 
120 0.0011438108 3.136314e-07            0 6.0856226e-06 0.0011756912 7.5595669e-07 7.5264608e-07    3.8814387            0            0  0.090897699 1.4809947e-11    0.1817954 1.3559647e-10   0.27269314 3.7406857e-09   0.36360037 7.5050655e-08   0.45455566 7.5595669e-07   0.54551398 1.6455167e-08   0.63640924 6.8204038e-08   0.72730694 6.8100241e-08    0.8182046 4.7406717e-08   0.90910229 2.1729249e-08            1 3.3106156e-09 
160 0.00029523118 2.1151764e-08            0 5.9169723e-06 0.00032986605 6.9404369e-08 6.6145268e-08    3.8852196            0            0   0.09090587 6.1672546e-12   0.18181174 9.8451989e-11   0.27271764 3.6103625e-09   0.36362706 6.4398936e-08   0.45453895 6.9404369e-08   0.54547141 1.5030997e-08   0.63637653 6.6442355e-08    0.7272824 6.6398372e-08   0.81818824 4.6349784e-08    0.9090941 2.1318949e-08            1 3.2591011e-09 
200 0.00010715434 2.7881487e-09            0 5.875758e-06 3.3800476e-05 6.5063096e-08 6.1845195e-08    3.8861855            0            0  0.090907849 6.0597645e-12    0.1818157 9.813565e-11   0.27272359 3.6039523e-09    0.3636327 6.3332493e-08   0.45454166 2.1759289e-08   0.54546106 1.4671326e-08   0.63636861 6.5063096e-08   0.72727646 6.5034348e-08   0.81818428 4.5480434e-08   0.90909212 2.0977315e-08            1 3.2179015e-09 
240 3.4238876e-05 2.3326015e-10            0 5.8220851e-06 3.3226324e-05 6.3305809e-08 6.0141331e-08    3.8866288            0            0  0.090908716 6.0117253e-12   0.18181743 9.7685463e-11    0.2727262 3.5832809e-09    0.3636357 6.2748006e-08   0.45454511 1.4877222e-08   0.54545663 1.4349095e-08   0.63636514 6.3305809e-08   0.72727386 6.3284331e-08   0.81818255 4.4354614e-08   0.90909126 2.0531908e-08            1 3.1644782e-09 
280 3.2901885e-05 2.099027e-10            0 5.7720359e-06 2.0582796e-05 6.2185294e-08 5.9070294e-08    3.8867754            0            0  0.090908928 5.9728491e-12   0.18181786 9.7134451e-11   0.27272684 3.559257e-09   0.36363648 6.2185294e-08   0.45454598 1.4296113e-08   0.54545556 1.4070766e-08   0.63636429 6.170458e-08   0.72727322 6.1685786e-08   0.81818212 4.3320819e-08   0.90909104 2.0120543e-08            1 3.1149992e-09 
320 3.2367958e-05 2.0773998e-10            0 5.7303325e-06 2.0459093e-05 6.1700168e-08 5.8626148e-08     3.886843            0            0  0.090908979 5.9412077e-12   0.18181796 9.6645139e-11   0.27272699 3.538216e-09   0.36363667 6.1700168e-08    0.4545462 1.4161307e-08    0.5454553 1.3843967e-08   0.63636408 6.0396231e-08   0.72727306 6.0378822e-08   0.81818202 4.2472905e-08   0.90909099 1.9781581e-08            1 3.0740205e-09 
360 3.1855028e-05 2.0271937e-10            0 5.6826694e-06 2.0348342e-05 6.1139787e-08 5.8112323e-08    3.8869031            0            0  0.090908998 5.9051725e-12     0.181818 9.6074472e-11   0.27272704 3.5137919e-09   0.36363674 6.1139787e-08   0.45454628 1.4049217e-08    0.5454552 1.3588273e-08   0.63636401 5.8928784e-08   0.72727301 5.8912659e-08   0.81818198 4.1519151e-08   0.90909098 1.9398643e-08            1 3.0274645e-09 
400 3.140001e-05 1.9733909e-10            0 5.638061e-06 2.0250323e-05 6.0613491e-08 5.7629329e-08    3.8869547            0            0  0.090909002 5.8713853e-12   0.18181801 9.5535493e-11   0.27272706 3.4907794e-09   0.36363675 6.0613491e-08   0.45454629 1.3950482e-08   0.54545517 1.3351788e-08   0.63636399 5.7581784e-08   0.72727299 5.756675e-08   0.81818197 4.0641298e-08   0.90909097 1.9044606e-08            1 2.9841626e-09 
440 3.0969216e-05 1.9204571e-10            0 5.5949126e-06 2.0156506e-05 6.0103936e-08 5.7161409e-08    3.8870038            0            0  0.090909003 5.8385927e-12   0.18181801 9.5011477e-11   0.27272706 3.4684406e-09   0.36363675 6.0103936e-08   0.45454629 1.385566e-08   0.54545516 1.312546e-08   0.63636398 5.6302717e-08   0.72727299 5.6288688e-08   0.81818197 3.9805631e-08   0.90909097 1.8706158e-08            1 2.9425275e-09 
480 3.0520545e-05 1.8660849e-10            0 5.5495257e-06 2.0057927e-05 5.9567822e-08 5.6668824e-08    3.8870559            0            0  0.090909004 5.8039632e-12   0.18181801 9.4457997e-11   0.27272706 3.4448777e-09   0.36363676 5.9567822e-08   0.45454629 1.3755934e-08   0.54545515 1.2889889e-08   0.63636398 5.4982151e-08   0.72727298 5.4969146e-08   0.81818197 3.8940703e-08   0.90909097 1.8354374e-08            1 2.8989979e-09 
520 3.0129635e-05 1.8174397e-10            0 5.5091697e-06 1.9969829e-05 5.9091127e-08 5.6230604e-08    3.8871029            0            0  0.090909002 5.7730502e-12   0.18181801 9.3964028e-11   0.27272706 3.423875e-09   0.36363675 5.9091127e-08   0.45454628 1.3666119e-08   0.54545516 1.2682557e-08   0.63636398 5.3829025e-08   0.72727299 5.3816903e-08   0.81818197 3.8183633e-08   0.90909097 1.8045195e-08            1 2.8605227e-09 
560 2.9716071e-05 1.7675101e-10            0 5.4662332e-06 1.9875857e-05 5.8583993e-08 5.5764168e-08    3.8871536            0            0  0.090909002 5.7400324e-12   0.18181801 9.3436618e-11   0.27272706 3.4014777e-09   0.36363674 5.8583993e-08   0.45454628 1.3570317e-08   0.54545516 1.2464149e-08   0.63636399 5.262357e-08   0.72727299 5.2612362e-08   0.81818197 3.7390375e-08   0.90909097 1.7719952e-08            1 2.8198252e-09 
600 2.9295181e-05 1.7174479e-10            0 5.4220888e-06 1.9778846e-05 5.8062653e-08 5.5284413e-08    3.8872066            0            0  0.090909001 5.7059467e-12     0.181818 9.2892367e-11   0.27272705 3.3783948e-09   0.36363674 5.8062653e-08   0.45454627 1.3471149e-08   0.54545516 1.224193e-08   0.63636399 5.1406846e-08   0.72727299 5.1396552e-08   0.81818198 3.6587775e-08   0.90909097 1.7389517e-08            1 2.7782393e-09 
640 2.8906929e-05 1.6717122e-10            0 5.380907e-06 1.968795e-05 5.7576366e-08 5.4836686e-08    3.8872569            0            0  0.090909001 5.6740204e-12     0.181818 9.2382796e-11   0.27272705  3.35681e-09   0.36363673 5.7576366e-08   0.45454626 1.3377997e-08   0.54545516 1.2036744e-08   0.63636399 5.0292141e-08   0.72727299 5.0282678e-08   0.81818198 3.5850743e-08   0.90909097 1.7084849e-08            1 2.7396794e-09 
680 2.8528632e-05 1.6278132e-10            0 5.3404027e-06 1.9598193e-05 5.7098149e-08 5.4396173e-08    3.8873071            0            0     0.090909 5.6424981e-12     0.181818 9.1879855e-11   0.27272705 3.3355319e-09   0.36363673 5.7098149e-08   0.45454626 1.3285785e-08   0.54545516 1.1836921e-08   0.63636399 4.9214645e-08   0.72727299 4.9205977e-08   0.81818198 3.5136718e-08   0.90909098 1.6788553e-08            1 2.7019759e-09 
720 2.814489e-05 1.5838612e-10            0 5.2989072e-06 1.9505865e-05 5.6608311e-08 5.3944732e-08    3.8873593            0            0     0.090909 5.6100792e-12     0.181818 9.136279e-11   0.27272705 3.3136832e-09   0.36363673 5.6608311e-08   0.45454625 1.3190698e-08   0.54545516 1.1634241e-08   0.63636399 4.8129888e-08   0.72727299 4.8122014e-08   0.81818198 3.4416273e-08   0.90909098 1.6488437e-08            1 2.6635791e-09 
760 2.7740479e-05 1.5381743e-10            0 5.254723e-06 1.9407131e-05 5.6086831e-08 5.3463881e-08    3.8874158            0            0  0.090908999 5.5754192e-12     0.181818 9.0810177e-11   0.27272704 3.2903627e-09   0.36363672 5.6086831e-08   0.45454625 1.3088754e-08   0.54545516 1.1420679e-08   0.63636399 4.6995762e-08   0.72727299 4.6988709e-08   0.81818198 3.3661286e-08   0.90909098 1.6172667e-08            1  2.62295e-09 
800 2.7342826e-05 1.4953428e-10            0 5.2112288e-06 1.9309698e-05 5.5573604e-08 5.299039e-08    3.8874722            0            0  0.090909001 5.5411581e-12     0.181818 9.0264118e-11   0.27272705 3.2673497e-09   0.36363673 5.5573604e-08   0.45454625 1.2988694e-08   0.54545514 1.1212707e-08   0.63636398 4.5900082e-08   0.72727298 4.5893815e-08   0.81818198 3.2930163e-08   0.90909098 1.5865619e-08            1 2.5832137e-09 
840 2.699509e-05 1.4556692e-10            0 5.1720359e-06 1.922118e-05 5.5111223e-08 5.2563595e-08     3.887524            0            0  0.090908998 5.5101637e-12     0.181818 8.9770263e-11   0.27272704 3.2465634e-09   0.36363671 5.5111223e-08   0.45454624 1.2896034e-08   0.54545515 1.1027212e-08   0.63636399 4.4930105e-08   0.72727299 4.4924526e-08   0.81818198 3.2281475e-08   0.90909098 1.5592139e-08            1 2.5476275e-09 
880 2.6663457e-05 1.4196802e-10            0 5.1347123e-06 1.9136735e-05 5.4670989e-08 5.2157056e-08    3.8875739            0            0  0.090908998 5.4805396e-12     0.181818 8.9298377e-11   0.27272704 3.2267253e-09   0.36363671 5.4670989e-08   0.45454623 1.2808206e-08   0.54545515 1.0852236e-08     0.636364 4.4021449e-08   0.72727299 4.4016509e-08   0.81818198 3.1672549e-08   0.90909098 1.5334505e-08            1 2.5139333e-09 
920 2.6307473e-05 1.3815332e-10            0 5.0942726e-06 1.9044878e-05 5.4194112e-08 5.1716471e-08    3.8876288            0            0  0.090908997 5.448323e-12     0.181818 8.8785332e-11   0.27272704 3.2051832e-09   0.36363671 5.4194112e-08   0.45454623 1.2712455e-08   0.54545515 1.0664485e-08     0.636364 4.3053254e-08   0.72727299 4.3048988e-08   0.81818198 3.1022376e-08   0.90909098 1.5058426e-08            1 2.477641e-09 
960 2.5936487e-05 1.3421186e-10            0 5.0516421e-06 1.894761e-05 5.3691532e-08 5.1251906e-08    3.8876874            0            0  0.090908996 5.4142262e-12   0.18181799 8.824249e-11   0.27272704 3.1824199e-09    0.3636367 5.3691532e-08   0.45454622 1.261086e-08   0.54545515 1.0468618e-08     0.636364 4.205072e-08     0.727273 4.2047145e-08   0.81818199 3.0347656e-08   0.90909098 1.4770821e-08            1 2.4396256e-09 
1000 3.1973387e-05 2.4219074e-10            0 5.0106223e-06 1.8854186e-05 5.3208082e-08  5.08048e-08    3.8877445            0            0  0.090909003 5.3812853e-12   0.18181801 8.7718209e-11   0.27272705 3.160464e-09   0.36363672 5.3208082e-08   0.45454625 1.2519007e-08   0.54545512 1.028213e-08   0.63636397 4.1103337e-08   0.72727298 4.1100408e-08   0.81818197 2.9708641e-08   0.90909098 1.449738e-08            1 2.4032822e-09 
1040 2.5267318e-05 1.2729648e-10            0 4.9738167e-06 1.8769027e-05 5.277441e-08 5.0403539e-08    3.8877968            0            0  0.090908996 5.351619e-12   0.18181799 8.7246114e-11   0.27272703 3.1407186e-09    0.3636367 5.277441e-08   0.45454621 1.2423568e-08   0.54545515 1.0116455e-08     0.636364 4.0267521e-08     0.727273 4.0265156e-08   0.81818199 2.9143719e-08   0.90909098 1.4254776e-08            1 2.3708711e-09 
1080 2.4939872e-05 1.2396893e-10            0 4.9351671e-06 1.8679794e-05 5.2319144e-08 4.9982106e-08    3.8878522            0            0  0.090908996 5.3203525e-12   0.18181799 8.6748679e-11   0.27272703 3.1199387e-09   0.36363669 5.2319144e-08    0.4545462 1.2329697e-08   0.54545515 9.9441445e-09     0.636364 3.9404077e-08     0.727273 3.9402288e-08   0.81818199 2.8558965e-08   0.90909098 1.4002783e-08            1 2.3370376e-09 
1120 2.4632238e-05 1.2088178e-10            0 4.8985268e-06 1.8594872e-05 5.1887673e-08 4.9582518e-08    3.8879054            0            0  0.090908995 5.2906038e-12   0.18181799 8.6275481e-11   0.27272703 3.1001956e-09   0.36363669 5.1887673e-08    0.4545462 1.2240173e-08   0.54545515 9.7823646e-09     0.636364 3.8598826e-08     0.727273 3.8597569e-08   0.81818199 2.8012547e-08   0.90909098 1.3766496e-08            1 2.3051546e-09 
1160 2.429728e-05 1.1756304e-10            0 4.8582622e-06 1.850118e-05 5.1413676e-08 4.9143342e-08    3.8879647            0            0  0.090908995 5.257791e-12   0.18181799 8.5753645e-11   0.27272703 3.0784507e-09   0.36363669 5.1413676e-08   0.45454619 1.2141194e-08   0.54545515 9.6063387e-09     0.636364 3.7728635e-08     0.727273 3.7727947e-08   0.81818199 2.7420878e-08   0.90909098 1.3509741e-08            1 2.2703335e-09 
1200 4.1228864e-05 4.4587648e-10            0 4.8185787e-06 1.8409155e-05 5.0946696e-08 4.871046e-08    3.8880236            0            0  0.090909003 5.2253263e-12   0.18181801 8.5237463e-11   0.27272705 3.0569697e-09   0.36363671 5.0946696e-08   0.45454623 1.2054411e-08   0.54545511 9.4346433e-09   0.63636397 3.6885864e-08   0.72727297 3.6885721e-08   0.81818197 2.6846662e-08   0.90909098 1.3259649e-08            1 2.2362366e-09 
1240 2.3692522e-05 1.1168635e-10            0 4.7845773e-06 1.8328712e-05 5.054669e-08 4.8339493e-08    3.8880753            0            0  0.090908994 5.1974108e-12   0.18181799 8.4793637e-11   0.27272703 3.0385231e-09   0.36363668 5.054669e-08   0.45454618 1.195842e-08   0.54545515 9.2889452e-09     0.636364 3.6175339e-08     0.727273 3.617565e-08   0.81818199 2.6361626e-08   0.90909099 1.3047689e-08            1 2.2071973e-09 
1280 2.3411074e-05 1.0900167e-10            0 4.7498373e-06 1.8246939e-05 5.0138141e-08 4.7960446e-08    3.8881284            0            0  0.090908994 5.1687932e-12   0.18181799 8.4338736e-11   0.27272702 3.0196379e-09   0.36363668 5.0138141e-08   0.45454618 1.1871509e-08   0.54545515 9.1414173e-09     0.636364 3.5460258e-08     0.727273 3.5461021e-08   0.81818199 2.5872616e-08   0.90909099 1.2833323e-08            1 2.1776949e-09 
1320  2.30994e-05 1.0606591e-10            0 4.7110283e-06 1.8155239e-05 4.9681911e-08 4.7536973e-08    3.8881884            0            0  0.090908994 5.1367096e-12   0.18181799 8.3828808e-11   0.27272702 2.9984946e-09   0.36363667 4.9681911e-08   0.45454618 1.1773856e-08   0.54545515 8.9782023e-09     0.636364 3.4674251e-08     0.727273 3.4675505e-08   0.81818199 2.5334086e-08   0.90909099 1.2596462e-08            1 2.1449382e-09 
1360 2.2804159e-05 1.0332424e-10            0 4.6739479e-06 1.8067282e-05 4.9246173e-08 4.7132334e-08    3.8882466            0            0  0.090908993 5.1059413e-12   0.18181799 8.333985e-11   0.27272702 2.9782472e-09   0.36363667 4.9246173e-08   0.45454617 1.1679997e-08   0.54545515 8.8238207e-09     0.636364 3.3935736e-08     0.727273 3.3937446e-08   0.81818199 2.4827112e-08   0.90909099 1.2372714e-08            1 2.1138394e-09 
1400 2.2546138e-05 1.0095062e-10            0 4.6412407e-06 1.7989401e-05 4.886197e-08  4.67754e-08    3.8882984            0            0  0.090908993 5.0787091e-12   0.18181799 8.2907132e-11   0.27272702 2.9603502e-09   0.36363667 4.886197e-08   0.45454617 1.159675e-08   0.54545515 8.6889097e-09   0.63636401 3.3294309e-08     0.727273 3.3296411e-08   0.81818199 2.4386002e-08   0.90909099 1.2177421e-08            1 2.0865701e-09 
1440 2.226942e-05 9.8444969e-11            0 4.6059257e-06 1.7905025e-05 4.8447291e-08 4.6389994e-08     3.888355            0            0  0.090908993 5.0492075e-12   0.18181799  8.24384e-11   0.27272702 2.9409866e-09   0.36363666 4.8447291e-08   0.45454616 1.1506394e-08   0.54545515 8.5445653e-09   0.63636401 3.2612111e-08     0.727273 3.2614624e-08   0.81818199 2.3916041e-08   0.90909099 1.1968717e-08            1 2.0572971e-09 
1480 2.2019181e-05 9.6193718e-11            0 4.5736768e-06 1.7827685e-05 4.8068765e-08 4.6038044e-08    3.8884073            0            0  0.090908993 5.022178e-12   0.18181799 8.2008982e-11   0.27272702 2.9232682e-09   0.36363666 4.8068765e-08   0.45454616 1.142344e-08   0.54545515  8.41395e-09   0.63636401 3.1998438e-08     0.727273 3.2001318e-08   0.81818199 2.3492564e-08   0.90909099 1.1780084e-08            1 2.030721e-09 
1520 2.1762973e-05 9.3922154e-11            0 4.5404328e-06 1.7747689e-05 4.7678713e-08 4.5675232e-08    3.8884618            0            0  0.090908993 4.9942247e-12   0.18181799 8.1564922e-11   0.27272702 2.9049668e-09   0.36363666 4.7678713e-08   0.45454615 1.1337494e-08   0.54545515 8.2804952e-09   0.63636401 3.1375001e-08     0.727273 3.1378248e-08   0.81818199 2.3061636e-08   0.90909099 1.1587568e-08            1 2.0034803e-09 
1560 2.1484999e-05 9.156798e-11            0 4.5044887e-06 1.7661013e-05 4.7257167e-08 4.5282961e-08    3.8885213            0            0  0.090908994 4.9638982e-12   0.18181799 8.1083201e-11   0.27272702 2.8851375e-09   0.36363666 4.7257167e-08   0.45454616 1.1244514e-08   0.54545514 8.1375554e-09     0.636364 3.0711266e-08     0.727273  3.07149e-08   0.81818199 2.2602055e-08   0.90909099 1.1381616e-08            1 1.9742053e-09 
1600 2.1249679e-05 8.9927267e-11            0 4.4730245e-06 1.7584616e-05 4.6888315e-08 4.4939584e-08    3.8885741            0            0  0.090908992 4.9372631e-12   0.18181799 8.0660133e-11   0.27272702 2.8677437e-09   0.36363665 4.6888315e-08   0.45454615 1.1161862e-08   0.54545515 8.0135837e-09   0.63636401 3.0138973e-08     0.727273 3.0142936e-08   0.81818199 2.220512e-08   0.90909099 1.1203201e-08            1 1.9487313e-09 
1640 2.100426e-05 8.9102826e-11            0 4.4404108e-06 1.7505295e-05 4.6506156e-08 4.4583679e-08    3.8886293            0            0  0.090908992 4.9095675e-12   0.18181799 8.0220246e-11   0.27272702 2.8496793e-09   0.36363665 4.6506156e-08   0.45454614 1.1076231e-08   0.54545515 7.8862131e-09   0.63636401 2.9554253e-08     0.727273 2.9558549e-08   0.81818199 2.1798915e-08   0.90909099 1.1020098e-08            1 1.9224772e-09 
1680 2.0745583e-05 8.8227809e-11            0  4.40576e-06 1.7420717e-05 4.6100315e-08 4.4205563e-08    3.8886887            0            0  0.090908992 4.8800441e-12   0.18181799 7.9751348e-11   0.27272702 2.8304471e-09   0.36363665 4.6100315e-08   0.45454614 1.0984781e-08   0.54545515 7.7521429e-09   0.63636401 2.8942353e-08     0.727273 2.8946992e-08   0.81818199 2.1373116e-08   0.90909099 1.0827588e-08            1 1.8947515e-09 
1720 2.0490147e-05 8.7357647e-11            0 4.3712632e-06 1.7336201e-05 4.5696476e-08 4.3829154e-08    3.8887484            0            0  0.090908992 4.8505509e-12   0.18181799 7.9282948e-11   0.27272701 2.8112596e-09   0.36363664 4.5696476e-08   0.45454613 1.0893256e-08   0.54545515 7.6199497e-09   0.63636401 2.8342616e-08     0.727273 2.8347586e-08     0.818182 2.0955063e-08   0.90909099   1.0638e-08            1 1.8673218e-09 
1760 2.0236221e-05 8.648667e-11            0 4.336646e-06 1.7251064e-05 4.5291435e-08 4.3451465e-08     3.888809            0            0  0.090908991 4.8208533e-12   0.18181798 7.8811311e-11   0.27272701 2.7919641e-09   0.36363664 4.5291435e-08   0.45454613 1.0800928e-08   0.54545515 7.4885753e-09   0.63636401 2.7750137e-08     0.727273 2.775543e-08     0.818182 2.0541362e-08   0.90909099 1.0449812e-08            1 1.8399701e-09 
1800 2.0006826e-05 8.5694607e-11            0 4.3052057e-06 1.7173487e-05 4.4923749e-08 4.310847e-08    3.8888646            0            0  0.090908991 4.7937922e-12   0.18181798 7.8381554e-11   0.27272701 2.7744036e-09   0.36363664 4.4923749e-08   0.45454612 1.0716652e-08   0.54545515 7.370365e-09   0.63636401 2.7220053e-08     0.727273 2.7225632e-08     0.818182 2.0170625e-08   0.90909099 1.0280674e-08            1 1.8152797e-09 
1840 1.9774396e-05 8.4886942e-11            0 4.2730668e-06 1.7093899e-05 4.454808e-08 4.275789e-08    3.8889221            0            0  0.090908991 4.7660419e-12   0.18181798 7.7940857e-11   0.27272701 2.7564174e-09   0.36363664 4.454808e-08   0.45454612 1.0630089e-08   0.54545515 7.2506136e-09   0.63636401 2.6685986e-08     0.727273 2.6691848e-08     0.818182 1.9796518e-08   0.90909099 1.010952e-08            1  1.79019e-09 
1880 1.9542731e-05 8.4076726e-11            0 4.2407926e-06 1.7013697e-05 4.4171023e-08 4.2405877e-08    3.8889803            0            0  0.090908991 4.7380851e-12   0.18181798 7.7496877e-11   0.27272701 2.7383194e-09   0.36363663 4.4171023e-08   0.45454612 1.0542741e-08   0.54545515 7.1314589e-09   0.63636401 2.6157509e-08     0.727273 2.6163646e-08     0.818182 1.942574e-08   0.90909099 9.9394073e-09            1 1.7651467e-09 
1920 1.9312007e-05 8.3264745e-11            0 4.2083949e-06 1.6932904e-05 4.3792728e-08 4.2052566e-08    3.8890394            0            0  0.090908991 4.7099304e-12   0.18181798 7.7049753e-11   0.27272701 2.7201155e-09   0.36363663 4.3792728e-08   0.45454611 1.0454634e-08   0.54545515 7.0129537e-09   0.63636401 2.5634813e-08     0.727273 2.564122e-08     0.818182 1.905844e-08   0.90909099 9.7704114e-09            1 1.7401614e-09 
1960 1.9109546e-05 8.2547946e-11            0 4.179764e-06 1.6861265e-05 4.3458589e-08 4.1740379e-08    3.8890922            0            0  0.090908991 4.6849729e-12   0.18181798 7.6653397e-11   0.27272701 2.7039974e-09   0.36363663 4.3458589e-08   0.45454611 1.0376417e-08   0.54545515 6.9091465e-09   0.63636401 2.5179331e-08     0.727273 2.5185969e-08     0.818182 1.8737893e-08   0.90909099 9.6225319e-09            1 1.7182098e-09 
2000 1.8887289e-05 8.1756382e-11            0 4.1481081e-06 1.6781795e-05 4.308934e-08 4.1395261e-08    3.8891511            0            0  0.090908991 4.6572949e-12   0.18181798 7.6213827e-11   0.27272701 2.6861427e-09   0.36363663 4.308934e-08   0.45454611 1.028955e-08   0.54545515 6.7953715e-09   0.63636401 2.4682671e-08     0.727273 2.4689557e-08     0.818182 1.8387856e-08   0.90909099 9.4606211e-09            1 1.6940796e-09 
Climbing replica = 5
Step MaxReplicaForce MaxAtomForce GradV0 GradV1 GradVc EBF EBR RDT RD1 PE1 RD2 PE2 ... RDN PEN
2000 1.8814834e-05 8.9078897e-11            0 4.1481081e-06 1.6781795e-05 4.308934e-08 4.1395261e-08    3.8891511            0            0  0.090908991 4.6572949e-12   0.18181798 7.6213827e-11   0.27272701 2.6861427e-09   0.36363663 4.308934e-08   0.45454611 1.028955e-08   0.54545515 6.7953715e-09   0.63636401 2.4682671e-08     0.727273 2.4689557e-08     0.818182 1.8387856e-08   0.90909099 9.4606211e-09            1 1.6940796e-09 
2040 1.8670546e-05 9.673517e-11            0 4.1231009e-06 1.6871141e-05 4.2835341e-08 4.1160219e-08    3.8892022            0            0  0.090911942 4.6340757e-12   0.18182389 7.5912369e-11   0.27273586 2.673486e-09   0.36364939 4.2835341e-08   0.45455631 1.0223021e-08   0.54546361 6.709162e-09   0.63637078 2.4295719e-08   0.72727808 2.4302296e-08   0.81818538 1.8114253e-08   0.90909269 9.333736e-09            1 1.6751223e-09 
2080 1.8464405e-05 9.6979878e-11            0 4.0888587e-06 1.6816381e-05 4.2481285e-08 4.0832466e-08    3.8892671            0            0  0.090916723 4.6013215e-12   0.18183345 7.5496581e-11    0.2727502 2.655992e-09   0.36366853 4.2481285e-08   0.45457272 1.0135395e-08    0.5454772 6.5908223e-09   0.63638165 2.3763173e-08   0.72728623 2.3769175e-08   0.81819082 1.7737013e-08    0.9090954 9.1583279e-09            1 1.6488186e-09 
2120 1.8269117e-05 9.6288494e-11            0 4.0583595e-06 1.675194e-05 4.2178379e-08 4.0551905e-08    3.8893199            0            0  0.090920921 4.5732348e-12   0.18184184 7.5139538e-11    0.2727628 2.6409911e-09   0.36368531 4.2178379e-08   0.45458712 1.0060279e-08   0.54548917 6.4908515e-09   0.63639123 2.3314716e-08   0.72729342 2.3320201e-08   0.81819561 1.7418817e-08    0.9090978 9.0099548e-09            1 1.6264746e-09 
2160 1.8080302e-05 9.5557247e-11            0 4.0303671e-06 1.6689519e-05 4.1894024e-08 4.028839e-08    3.8893691            0            0  0.090924899 4.5468249e-12    0.1818498 7.4803041e-11   0.27277473 2.6268733e-09   0.36370122 4.1894024e-08   0.45460076 9.9892847e-09   0.54550053 6.3979305e-09   0.63640032 2.2899648e-08   0.72730023 2.2904651e-08   0.81820015 1.7123903e-08   0.90910007 8.8720926e-09            1 1.605634e-09 
2200 1.7862642e-05 9.4709464e-11            0 3.9983862e-06 1.6617642e-05 4.1568929e-08 3.9986962e-08    3.8894254            0            0  0.090929472 4.5165808e-12   0.18185895 7.4416731e-11   0.27278845 2.6106896e-09   0.36371951 4.1568929e-08   0.45461643 9.9076508e-09   0.54551359 6.2927341e-09   0.63641077 2.2432039e-08   0.72730807 2.2436503e-08   0.81820538 1.6791192e-08   0.90910268 8.7161572e-09            1 1.5819672e-09 
2240 1.7659967e-05 9.3914717e-11            0 3.9684335e-06 1.6550014e-05 4.1264233e-08 3.9704293e-08    3.8894785            0            0  0.090933776 4.4881855e-12   0.18186755 7.4053089e-11   0.27280136 2.595479e-09   0.36373672 4.1264233e-08   0.45463119 9.8307453e-09   0.54552589 6.1951189e-09    0.6364206 2.2000399e-08   0.72731545 2.2004373e-08   0.81821029 1.6483633e-08   0.90910514 8.5716236e-09            1 1.5599402e-09 
2280 1.7472396e-05 9.3179101e-11            0 3.9407359e-06 1.6487199e-05 4.0982291e-08 3.9442599e-08    3.8895281            0            0  0.090937772 4.4618683e-12   0.18187555 7.3715236e-11   0.27281335 2.5813676e-09    0.3637527 4.0982291e-08   0.45464488 9.7592663e-09    0.5455373 6.1056277e-09   0.63642974 2.1606633e-08    0.7273223 2.1610168e-08   0.81821486 1.6202688e-08   0.90910743 8.4392683e-09            1 1.5396916e-09 
2320 1.7280313e-05 9.2420322e-11            0 3.9121438e-06 1.6422104e-05 4.0691058e-08 3.9172148e-08    3.8895797            0            0  0.090941913 4.4346409e-12   0.18188383 7.336486e-11   0.27282577 2.5667539e-09   0.36376926 4.0691058e-08   0.45465908 9.6851228e-09   0.54554914 6.0140218e-09    0.6364392 2.1205511e-08    0.7273294 2.1208606e-08   0.81821959 1.5916125e-08   0.90910979 8.3039387e-09            1 1.5189102e-09 
2360 1.7083239e-05 9.163709e-11            0 3.8826205e-06 1.6354611e-05 4.0390142e-08 3.889256e-08    3.8896336            0            0  0.090946206 4.4064619e-12   0.18189241 7.3001337e-11   0.27283865 2.5516143e-09   0.36378642 4.0390142e-08   0.45467379 9.6081866e-09    0.5455614 5.9202556e-09   0.63644902 2.079698e-08   0.72733675 2.0799636e-08    0.8182245 1.5623881e-08   0.90911225 8.1655812e-09            1 1.4975815e-09 
2400 1.6894954e-05 9.0884148e-11            0 3.8542282e-06 1.6289437e-05 4.0100564e-08 3.862337e-08    3.8896859            0            0   0.09095035 4.3793001e-12    0.1819007 7.2650063e-11   0.27285108 2.5370065e-09   0.36380299 4.0100564e-08     0.454688 9.5338364e-09   0.54557324 5.8308678e-09   0.63645849 2.0409464e-08   0.72734386 2.0411711e-08   0.81822924 1.5346304e-08   0.90911461 8.0338404e-09            1 1.4771942e-09 
2440 1.6688917e-05 9.0051881e-11            0 3.8228323e-06 1.6217059e-05 3.9780143e-08 3.832535e-08    3.8897444            0            0  0.090954951 4.3491939e-12    0.1819099 7.2259704e-11   0.27286489 2.5207983e-09   0.36382139 3.9780143e-08   0.45470377 9.4512141e-09   0.54558639 5.7329181e-09   0.63646901 1.998701e-08   0.72735175 1.998882e-08    0.8182345 1.504329e-08   0.90911724 7.8896583e-09            1 1.4547926e-09 
2480 1.6516558e-05 8.9357039e-11            0 3.7966026e-06 1.6156347e-05 3.9512274e-08 3.8076082e-08    3.8897938            0            0   0.09095881 4.3239838e-12   0.18191762 7.1932008e-11   0.27287646 2.5072123e-09   0.36383682 3.9512274e-08     0.454717 9.3818472e-09   0.54559742 5.6518042e-09   0.63647783  1.96389e-08   0.72735836 1.9640357e-08   0.81823891 1.4793273e-08   0.90911945 7.7704002e-09            1 1.436192e-09 
2520 1.6347225e-05 8.8667446e-11            0 3.7705678e-06 1.6095851e-05 3.9246245e-08 3.7828411e-08    3.8898432            0            0  0.090962654 4.2989091e-12   0.18192531 7.1605328e-11     0.272888 2.4936869e-09   0.36385219 3.9246245e-08   0.45473017 9.3127018e-09    0.5456084 5.5719377e-09   0.63648661 1.929768e-08   0.72736495 1.9298797e-08    0.8182433 1.4547916e-08   0.90912165 7.653103e-09            1 1.4178335e-09 
2560 1.6159091e-05 8.7893218e-11            0 3.7413262e-06 1.6027631e-05 3.8947269e-08 3.7549931e-08    3.8898993            0            0  0.090966988 4.2706838e-12   0.18193398 7.1236711e-11     0.272901 2.4784474e-09   0.36386952 3.8947269e-08   0.45474503 9.2346915e-09   0.54562078 5.4829958e-09   0.63649652 1.8919487e-08   0.72737238 1.8920235e-08   0.81824825 1.4275634e-08   0.90912412 7.5226273e-09            1 1.3973371e-09 
2600 1.5992882e-05 8.7211974e-11            0 3.7155764e-06 1.5967326e-05 3.8683838e-08 3.7304441e-08    3.8899491            0            0  0.090970819 4.2457745e-12   0.18194164 7.0910611e-11   0.27291249 2.4649851e-09   0.36388484 3.8683838e-08   0.45475816 9.1656756e-09   0.54563173 5.4053416e-09   0.63650528 1.8590846e-08   0.72737895 1.859128e-08   0.81825263 1.4038735e-08   0.90912631 7.4088405e-09            1 1.3793967e-09 
2640 1.5904224e-05 8.6502101e-11            0 3.6887391e-06 1.5904224e-05 3.8409128e-08 3.7048322e-08    3.8900015            0            0  0.090974826 4.2197587e-12   0.18194965 7.0569232e-11   0.27292451 2.4509119e-09   0.36390086 3.8409128e-08    0.4547719 9.0934424e-09   0.54564318 5.3250697e-09   0.63651444 1.8252655e-08   0.72738582 1.8252773e-08   0.81825721 1.3794665e-08    0.9091286 7.2913475e-09            1 1.3608069e-09 
2680 1.5836106e-05 8.5739277e-11            0 3.6598864e-06 1.5836106e-05 3.8113615e-08 3.677267e-08    3.8900584            0            0  0.090979151 4.1917269e-12    0.1819583 7.0200488e-11   0.27293749 2.4357331e-09   0.36391816 3.8113615e-08   0.45478672 9.0154338e-09   0.54565553 5.2395209e-09   0.63652432 1.7893951e-08   0.72739324 1.789374e-08   0.81826216 1.3535467e-08   0.90913107 7.1662772e-09            1 1.3409447e-09 
2720 1.577127e-05 8.5016548e-11            0 3.6325378e-06 1.577127e-05 3.7833342e-08 3.6511106e-08    3.8901129            0            0  0.090983267 4.1650967e-12   0.18196654 6.9849299e-11   0.27294983 2.4212988e-09   0.36393461 3.7833342e-08   0.45480083 8.9411571e-09   0.54566729 5.159149e-09   0.63653373 1.7558574e-08   0.72740029 1.7558062e-08   0.81826686 1.3292822e-08   0.90913343 7.0489147e-09            1 1.3222366e-09 
2760 1.5707275e-05 8.4306613e-11            0 3.6056465e-06 1.5707275e-05 3.7557599e-08 3.6253645e-08    3.8901669            0            0  0.090987329 4.1388547e-12   0.18197466 6.9502387e-11   0.27296202 2.4070613e-09   0.36395086 3.7557599e-08   0.45481475 8.8678028e-09    0.5456789 5.0807985e-09   0.63654302 1.7233147e-08   0.72740726 1.723235e-08    0.8182715 1.3057091e-08   0.90913575 6.9346351e-09            1 1.3039539e-09 
2800 1.5649848e-05 8.3672036e-11            0 3.5816132e-06 1.5649848e-05 3.7311033e-08 3.6023323e-08    3.8902157            0            0  0.090990973 4.1153537e-12   0.18198195 6.9190995e-11   0.27297295 2.3942993e-09   0.36396543 3.7311033e-08   0.45482724 8.8019792e-09   0.54568931 5.0113426e-09   0.63655135 1.694592e-08    0.7274135 1.6944878e-08   0.81827567 1.2848797e-08   0.90913783 6.8334388e-09            1 1.2877093e-09 
2840 1.5588825e-05 8.3000626e-11            0 3.5561669e-06 1.5588825e-05 3.7049838e-08 3.5779231e-08    3.8902677            0            0  0.090994845 4.0904217e-12   0.18198969  6.88599e-11   0.27298456 2.3807482e-09   0.36398091 3.7049838e-08   0.45484051 8.7320127e-09   0.54570037 4.938385e-09   0.63656019 1.6645488e-08   0.72742014 1.6644193e-08   0.81828009 1.2630687e-08   0.90914004 6.7272528e-09            1 1.2706074e-09 
2880 1.5526723e-05 8.232031e-11            0 3.5303696e-06 1.5526723e-05 3.6784903e-08 3.5531531e-08     3.890321            0            0  0.090998784 4.0650936e-12   0.18199757 6.8522761e-11   0.27299638 2.3669692e-09   0.36399666 3.6784903e-08   0.45485402 8.6607949e-09   0.54571163  4.86503e-09    0.6365692 1.6344742e-08   0.72742689  1.63432e-08   0.81828459 1.2412101e-08   0.90914229 6.6206056e-09            1 1.2533725e-09 
2920 1.5461171e-05 8.160546e-11            0 3.5032474e-06 1.5461171e-05 3.6506216e-08 3.5270851e-08    3.8903775            0            0  0.091002942 4.0384082e-12   0.18200588 6.8166693e-11   0.27300886 2.352438e-09   0.36401329 3.6506216e-08   0.45486827 8.5856104e-09   0.54572351 4.7885672e-09    0.6365787 1.603267e-08   0.72743402 1.6030878e-08   0.81828935 1.2185021e-08   0.90914467 6.5095669e-09            1 1.2353644e-09 
2960 1.5395834e-05 8.0896272e-11            0 3.4763246e-06 1.5395834e-05 3.6229427e-08 3.5011824e-08    3.8904341            0            0  0.091007085 4.011861e-12   0.18201417 6.7811591e-11   0.27302128 2.337968e-09   0.36402985 3.6229427e-08   0.45488247 8.5106652e-09   0.54573534 4.7133328e-09   0.63658817 1.5727029e-08   0.72744112 1.5724998e-08   0.81829408 1.1962355e-08   0.90914704 6.4004398e-09            1 1.2176026e-09 
3000 1.8817217e-05 1.4554428e-10            0 3.4487972e-06 1.5328765e-05 3.594627e-08 3.4746711e-08    3.8904926            0            0  0.091011335 3.9846581e-12   0.18202267 6.7446799e-11   0.27303403 2.323126e-09   0.36404685 3.594627e-08   0.45489703 8.4358236e-09   0.54574752 4.6370949e-09   0.63659791 1.5418744e-08   0.72744843 1.5416478e-08   0.81829895 1.1737494e-08   0.90914947 6.2899858e-09            1 1.1995594e-09 
3040 1.5274211e-05 7.9585069e-11            0 3.4264993e-06 1.5274211e-05 3.5716794e-08 3.4531762e-08    3.8905403            0            0  0.091014795 3.9625785e-12   0.18202959 6.7150026e-11   0.27304442 2.3110684e-09   0.36406068 3.5716794e-08    0.4549089 8.3711468e-09   0.54575738 4.5758437e-09    0.6366058 1.5172127e-08   0.72745434 1.5169678e-08   0.81830289 1.1557419e-08   0.90915144 6.2013456e-09            1 1.1850313e-09 
3080 1.5215307e-05 7.8954104e-11            0 3.4025057e-06 1.5215307e-05 3.5469755e-08 3.4300269e-08     3.890592            0            0  0.091018529 3.9387754e-12   0.18203706 6.6829395e-11   0.27305562 2.2980586e-09   0.36407561 3.5469755e-08    0.4549217 8.3035834e-09   0.54576804 4.5104404e-09   0.63661433 1.4909826e-08   0.72746074 1.4907187e-08   0.81830716 1.1365697e-08   0.90915358 6.1067903e-09            1 1.1694858e-09 
3120 1.5149937e-05 7.8256824e-11            0 3.375982e-06 1.5149937e-05 3.5196535e-08 3.4044128e-08    3.8906497            0            0  0.091022673 3.9124084e-12   0.18204535 6.6473389e-11   0.27306805 2.2836344e-09   0.36409218 3.5196535e-08    0.4549359 8.2291837e-09   0.54577987 4.4387459e-09   0.63662379 1.4623536e-08   0.72746784 1.4620696e-08   0.81831189 1.1156212e-08   0.90915594 6.0032564e-09            1 1.1524068e-09 
3160 1.5094593e-05 7.7669505e-11            0 3.3536074e-06 1.5094593e-05 3.4965949e-08 3.3827862e-08    3.8906989            0            0  0.091026178 3.890122e-12   0.18205236 6.6171784e-11   0.27307856 2.2714315e-09    0.3641062 3.4965949e-08   0.45494792 8.1651377e-09    0.5457899 4.3787625e-09   0.63663182 1.4385006e-08   0.72747386 1.4382001e-08    0.8183159 1.0981487e-08   0.90915795 5.9167263e-09            1 1.1380862e-09 
3200 1.503794e-05 7.7070522e-11            0 3.330788e-06 1.503794e-05 3.4730677e-08 3.3607114e-08    3.8907495            0            0  0.091029767 3.8673507e-12   0.18205954 6.586296e-11   0.27308933 2.2589529e-09   0.36412055 3.4730677e-08   0.45496022 8.1001848e-09   0.54580015 4.3180499e-09   0.63664002 1.4144512e-08   0.72748001 1.4141345e-08      0.81832 1.0805152e-08      0.90916 5.8292338e-09            1 1.1235625e-09 
3240 1.4976386e-05  7.64225e-11            0 3.3060863e-06 1.4976386e-05 3.4475886e-08 3.3367951e-08    3.8908046            0            0  0.091033666 3.8426535e-12   0.18206733 6.5527261e-11   0.27310103 2.2454071e-09   0.36413614 3.4475886e-08   0.45497358 8.0296291e-09   0.54581129 4.2528565e-09   0.63664893 1.3887314e-08   0.72748669 1.388398e-08   0.81832446 1.0616376e-08   0.90916223 5.735384e-09            1 1.1079341e-09 
3280 1.739233e-05 1.0075674e-10            0 3.281305e-06 1.4914405e-05 3.4220157e-08 3.3127804e-08    3.8908603            0            0  0.091037595 3.8178268e-12   0.18207519 6.5189005e-11   0.27311281 2.231778e-09   0.36415185 3.4220157e-08   0.45498706 7.9603512e-09   0.54582249 4.1880009e-09   0.63665789 1.3632536e-08   0.72749341 1.3629041e-08   0.81832894 1.0429176e-08   0.90916447 5.6421266e-09            1 1.092353e-09 
3320 1.4860659e-05 7.5212137e-11            0 3.2599001e-06 1.4860659e-05 3.3999177e-08 3.2920203e-08     3.890909            0            0  0.091040996 3.7963424e-12   0.18208199 6.4895639e-11   0.27312302 2.2199736e-09   0.36416545 3.3999177e-08   0.45499871 7.8970283e-09   0.54583223 4.132426e-09   0.63666568 1.3415069e-08   0.72749926 1.3411438e-08   0.81833284 1.0269231e-08   0.90916642 5.562294e-09            1 1.0789738e-09 
3360 1.4803299e-05 7.4616053e-11            0 3.237134e-06 1.4803299e-05 3.376405e-08 3.2699226e-08     3.890961            0            0  0.091044627 3.7734505e-12   0.18208926 6.458239e-11   0.27313391 2.2073857e-09   0.36417997 3.376405e-08   0.45501116 7.8313438e-09   0.54584261 4.0737631e-09   0.63667398 1.3186389e-08   0.72750548 1.3182622e-08   0.81833699 1.0100881e-08   0.90916849 5.4781125e-09            1 1.064824e-09 
3400 1.4742883e-05 7.3990925e-11            0 3.2132433e-06 1.4742883e-05 3.3517206e-08 3.2467141e-08    3.8910161            0            0  0.091048452 3.7493822e-12   0.18209691  6.42523e-11   0.27314538 2.1941395e-09   0.36419526 3.3517206e-08   0.45502427 7.7621877e-09   0.54585354 4.0126979e-09   0.63668273 1.2949293e-08   0.72751204 1.2945388e-08   0.81834136 9.9261606e-09   0.90917068 5.3905771e-09            1 1.0500647e-09 
3440 1.4682522e-05 7.3369172e-11            0 3.1894656e-06 1.4682522e-05 3.3271425e-08 3.2235959e-08    3.8910714            0            0  0.091052273 3.7253811e-12   0.18210455 6.3922369e-11   0.27315685 2.1809186e-09   0.36421054 3.3271425e-08   0.45503736 7.6931293e-09   0.54586445 3.9524239e-09   0.63669146 1.2716223e-08   0.72751859 1.2712187e-08   0.81834573 9.7542318e-09   0.90917286 5.3042708e-09            1 1.0354663e-09 
3480 1.4621949e-05 7.2748296e-11            0 3.1656913e-06 1.4621949e-05 3.3025576e-08 3.2004616e-08    3.8911271            0            0  0.091056107 3.7013366e-12   0.18211222 6.3591077e-11   0.27316835 2.1676621e-09   0.36422587 3.3025576e-08   0.45505051 7.6238536e-09   0.54587541 3.8926579e-09   0.63670022 1.2486057e-08   0.72752516 1.2481895e-08   0.81835011 9.5842729e-09   0.90917505 5.218786e-09            1 1.0209608e-09 
3520 1.4570172e-05 7.2219442e-11            0 3.1454475e-06 1.4570172e-05 3.2816155e-08 3.1807474e-08     3.891175            0            0  0.091059383 3.6808258e-12   0.18211877 6.3307862e-11   0.27317818 2.1563446e-09   0.36423897 3.2816155e-08   0.45506174 7.5646869e-09   0.54588477 3.8421602e-09   0.63670771 1.2292318e-08   0.72753078 1.2288053e-08   0.81835385 9.4410778e-09   0.90917692 5.1466321e-09            1 1.0086814e-09 
3560 1.4513103e-05 7.1639091e-11            0 3.1232092e-06 1.4513103e-05 3.2586018e-08 3.1590749e-08    3.8912279            0            0  0.091062994 3.658255e-12   0.18212599 6.2995553e-11   0.27318901 2.1438806e-09   0.36425341 3.2586018e-08   0.45507411 7.4995048e-09   0.54589508 3.7871028e-09   0.63671597 1.2081852e-08   0.72753697 1.207748e-08   0.81835798  9.28538e-09   0.90917899 5.0680411e-09            1 9.952685e-10 
3600 1.4451431e-05 7.1014418e-11            0 3.099267e-06 1.4451431e-05 3.2338151e-08 3.1357233e-08    3.8912853            0            0  0.091066898 3.6339089e-12    0.1821338 6.2657912e-11   0.27320072 2.1304247e-09   0.36426902 3.2338151e-08    0.4550875 7.4300073e-09   0.54590622 3.7283106e-09   0.63672487 1.1858001e-08   0.72754365 1.1853518e-08   0.81836243 9.1196181e-09   0.90918121 4.9842116e-09            1 9.8091746e-10 
3640 1.4401488e-05 7.0511368e-11            0 3.0799444e-06 1.4401488e-05 3.2138035e-08 3.1168632e-08    3.8913321            0            0  0.091070055 3.6142253e-12   0.18214011 6.2384345e-11   0.27321019 2.1195369e-09   0.36428165 3.2138035e-08   0.45509832 7.3721382e-09   0.54591526 3.6812299e-09   0.63673211  1.16794e-08   0.72754907 1.1674832e-08   0.81836605 8.9872429e-09   0.90918302 4.9171475e-09            1 9.6940331e-10 
3680 1.4345646e-05 6.9950716e-11            0 3.0584149e-06 1.4345646e-05 3.1914987e-08 3.0958341e-08    3.8913846            0            0  0.091073587 3.5922568e-12   0.18214718 6.2078401e-11   0.27322079 2.1073759e-09   0.36429577 3.1914987e-08   0.45511042 7.3084881e-09   0.54592535 3.6291544e-09   0.63674018 1.1482547e-08   0.72755513 1.1477888e-08   0.81837008 8.8412135e-09   0.90918504 4.8430421e-09            1 9.5664553e-10 
3720 1.4287243e-05 6.9366894e-11            0 3.0359795e-06 1.4287243e-05 3.1682471e-08 3.073904e-08    3.8914397            0            0  0.091077281 3.5693226e-12   0.18215456 6.1758309e-11   0.27323187  2.09467e-09   0.36431054 3.1682471e-08   0.45512308 7.2419723e-09    0.5459359 3.5753176e-09   0.63674862 1.1279802e-08   0.72756146 1.1275054e-08   0.81837431 8.6906748e-09   0.90918715 4.766511e-09            1 9.4343145e-10 
3760 1.4229317e-05 6.8790413e-11            0 3.0138097e-06 1.4229317e-05 3.1452623e-08 3.0522169e-08    3.8914945            0            0  0.091080944 3.5466182e-12   0.18216189 6.1440713e-11   0.27324286 2.0820807e-09   0.36432518 3.1452623e-08   0.45513564 7.1760569e-09   0.54594636 3.5225473e-09   0.63675699 1.1081835e-08   0.72756774 1.1077002e-08   0.81837849 8.5435452e-09   0.90918924 4.6915767e-09            1 9.3045448e-10 
3800 1.4170634e-05 6.8209033e-11            0 2.9914334e-06 1.4170634e-05 3.1220552e-08 3.0303114e-08    3.8915503            0            0  0.091084654 3.5236604e-12   0.18216931 6.111885e-11   0.27325399 2.0693403e-09   0.36434002 3.1220552e-08   0.45514836 7.1093419e-09   0.54595696 3.4697173e-09   0.63676547 1.0884401e-08    0.7275741 1.0879488e-08   0.81838273 8.3966754e-09   0.90919136 4.6166386e-09            1 9.1743824e-10 
3840 1.4110231e-05 6.7613691e-11            0 2.9684833e-06 1.4110231e-05 3.0982443e-08 3.007827e-08     3.891608            0            0  0.091088474 3.5000697e-12   0.18217695 6.0787357e-11   0.27326545 2.0562375e-09    0.3643553 3.0982443e-08   0.45516145 7.0410467e-09   0.54596787 3.4159813e-09    0.6367742 1.0684366e-08   0.72758064 1.0679374e-08   0.81838709 8.2477289e-09   0.90919354 4.5405006e-09            1 9.0417349e-10 
3880 1.4060994e-05 6.712994e-11            0 2.9498488e-06 1.4060994e-05 3.0789045e-08 2.9895578e-08    3.8916552            0            0  0.091091585 3.480882e-12   0.18218317 6.0517163e-11   0.27327478 2.0455718e-09   0.36436773 3.0789045e-08   0.45517211 6.9848681e-09   0.54597677 3.3726854e-09   0.63678131 1.0523768e-08   0.72758598 1.0518716e-08   0.81839065 8.1280432e-09   0.90919532 4.4792162e-09            1 8.9346681e-10 
3920 1.4005953e-05 6.6591614e-11            0 2.9290843e-06 1.4005953e-05 3.0573474e-08 2.969187e-08    3.8917082            0            0  0.091095063 3.4594664e-12   0.18219013 6.0214989e-11   0.27328522 2.0336588e-09   0.36438164 3.0573474e-08   0.45518404 6.9224807e-09    0.5459867 3.3247916e-09   0.63678926 1.0346719e-08   0.72759194 1.0341604e-08   0.81839463 7.9959897e-09   0.90919731 4.4114906e-09            1 8.8160367e-10 
3960 1.3954963e-05 6.609503e-11            0 2.909911e-06 1.3954963e-05 3.037436e-08 2.9503647e-08    3.8917575            0            0  0.091098286 3.439659e-12   0.18219657 5.9934936e-11   0.27329488 2.0226322e-09   0.36439453 3.037436e-08   0.45519508 6.8647369e-09   0.54599591 3.2808965e-09   0.63679663 1.018501e-08   0.72759747 1.017984e-08   0.81839831 7.8752771e-09   0.90919915 4.349481e-09            1 8.7071275e-10 
4000 1.390346e-05 6.5595398e-11            0 2.8906108e-06 1.390346e-05 3.017387e-08 2.9314059e-08    3.8918074            0            0   0.09110154 3.4196888e-12   0.18220308 5.9652021e-11   0.27330465 2.0115067e-09   0.36440754 3.017387e-08   0.45520624 6.8064812e-09   0.54600521 3.2370289e-09   0.63680407 1.0023939e-08   0.72760304 1.0018716e-08   0.81840203 7.7549443e-09   0.90920101 4.2875698e-09            1 8.5981115e-10 
