LAMMPS (29 Oct 2020)
Processor partition = 41
# LAMMPS task file for neb

      dimension   2
     atom_style bond
     boundary   f f p
     bond_style harmonic
     atom_modify	map array sort 0 0.0

     variable  u uloop 100
     read_data  temp/h_-6779599749597012937_-7482915513354146445_0.txt
Reading data file ...
  orthogonal box = (-6.0000000 -6.0000000 -6.0000000) to (6.0000000 6.0000000 6.0000000)
  1 by 1 by 1 MPI processor grid
  reading atoms ...
  7 atoms
  scanning bonds ...
  3 = max bonds/atom
  reading bonds ...
  11 bonds
Finding 1-2 1-3 1-4 neighbors ...
  special bond factors lj:    0.0      0.0      0.0     
  special bond factors coul:  0.0      0.0      0.0     
     4 = max # of 1-2 neighbors
     9 = max # of 1-3 neighbors
    28 = max # of 1-4 neighbors
     6 = max # of special neighbors
  special bonds CPU = 0.000 seconds
  read_data CPU = 0.038 seconds
     timestep  0.1
     fix 1 all neb 1.0 parallel ideal

     thermo 100
     fix 2 all enforce2d
     dump 1 all atom 10 temp/0dump.neb.$u
     dump 1 all atom 10 temp/0dump.neb.42
      min_style quickmin
     neb 1e-08 0.0 2000 2000 40 final lammps_util/script/prion_neb_pos.lj0
WARNING: Using 'neigh_modify every 1 delay 0 check yes' setting during minimization (../min.cpp:187)
Per MPI rank memory allocation (min/avg/max) = 4.840 | 4.840 | 4.840 Mbytes
Step Temp E_pair E_mol TotEng Press 
       0            0            0  0.072058787  0.072058787  0.013655503 
     100 1.9305782e-06            0 6.7915786e-06 8.4463599e-06 8.5817342e-07 
     200 7.0190365e-07            0 3.9289404e-06 4.5305721e-06 -1.3801918e-07 
     300 5.783094e-08            0 2.5907036e-06 2.640273e-06 -3.4632503e-07 
     400 3.7073415e-07            0 1.5898927e-06 1.9076648e-06 -2.9297401e-07 
     500 2.7049674e-07            0 8.9329591e-07 1.1251503e-06 -2.2366007e-07 
     600 2.2889729e-07            0 4.7203389e-07 6.6823157e-07 -1.5832641e-07 
     700 2.3052952e-07            0 2.3977167e-07 4.373684e-07 -1.0823845e-07 
     800 1.2018097e-07            0 1.3022368e-07 2.3323594e-07 -4.8213736e-08 
     900 5.8757352e-08            0 7.0102452e-08 1.204659e-07 -7.9277951e-08 
    1000 4.1371328e-08            0 3.7310872e-08 7.277201e-08 -1.9086891e-08 
    1100 5.0103089e-08            0 1.9263522e-08 6.2209027e-08 2.5431537e-09 
    1200 3.9011437e-08            0 9.7191876e-09 4.3157562e-08 1.331123e-09 
    1300 2.994062e-08            0 4.8014603e-09 3.0464848e-08 5.6426335e-09 
    1400 2.2519184e-08            0 2.3256281e-09 2.1627786e-08 1.5156721e-08 
    1500 8.0655131e-09            0 1.1120454e-09 8.0253423e-09 2.8326894e-08 
    1600 8.9040168e-09            0 5.2526483e-10 8.1572793e-09 -3.1631647e-08 
    1700 8.9388624e-09            0 2.4756156e-10 7.9094436e-09 8.3033393e-09 
    1800 3.9390544e-09            0 1.1480108e-10 3.4911334e-09 1.2273054e-09 
    1900 3.1382592e-09            0 5.2900708e-11 2.7428372e-09 -2.2892806e-09 
    2000 2.0261936e-09            0 2.4519852e-11 1.7612572e-09 2.6389872e-08 
Loop time of 12.3197 on 1 procs for 2000 steps with 7 atoms

3.8% CPU use with 1 MPI tasks x no OpenMP threads

Minimization stats:
  Stopping criterion = max iterations
  Energy initial, next-to-last, final = 
     0.072058786956627 2.46257566855704e-11 2.45198523113125e-11
  Force two-norm initial, final = 2.8007524 9.4137080e-05
  Force max component initial, final = 1.4842698 4.2819617e-05
  Final line search alpha, max atom move = 0.0000000 0.0000000
  Iterations, force evaluations = 2000 2000

MPI task timing breakdown:
Section |  min time  |  avg time  |  max time  |%varavg| %total
---------------------------------------------------------------
Pair    | 0          | 0          | 0          |   0.0 |  0.00
Bond    | 0.002959   | 0.002959   | 0.002959   |   0.0 |  0.02
Neigh   | 2e-06      | 2e-06      | 2e-06      |   0.0 |  0.00
Comm    | 0.001392   | 0.001392   | 0.001392   |   0.0 |  0.01
Output  | 0.20076    | 0.20076    | 0.20076    |   0.0 |  1.63
Modify  | 3.8415     | 3.8415     | 3.8415     |   0.0 | 31.18
Other   |            | 8.273      |            |       | 67.15

Nlocal:        7.00000 ave           7 max           7 min
Histogram: 1 0 0 0 0 0 0 0 0 0
Nghost:        0.00000 ave           0 max           0 min
Histogram: 1 0 0 0 0 0 0 0 0 0
Neighs:        0.00000 ave           0 max           0 min
Histogram: 1 0 0 0 0 0 0 0 0 0

Total # of neighbors = 0
Ave neighs/atom = 0.0000000
Ave special neighs/atom = 6.0000000
Neighbor list builds = 1
Dangerous builds = 0
WARNING: Using 'neigh_modify every 1 delay 0 check yes' setting during minimization (../min.cpp:187)
Per MPI rank memory allocation (min/avg/max) = 4.840 | 4.840 | 4.840 Mbytes
Step Temp E_pair E_mol TotEng Press 
    2000            0            0 2.4519852e-11 2.4519852e-11 2.6305447e-08 
    2100 8.7114596e-09            0 1.2149634e-11 7.479115e-09 2.3003167e-09 
    2200 7.4401013e-09            0  5.78791e-12 6.3830176e-09 -7.3231766e-09 
    2300 5.8178148e-09            0 2.8850671e-12 4.9895835e-09 -1.9873814e-08 
    2400 4.9323501e-09            0 1.1909522e-12 4.2289196e-09 3.1523537e-09 
    2500 3.8581451e-09            0 6.9923707e-13 3.3076808e-09 2.1633559e-08 
    2600 2.1142016e-09            0 4.898529e-13 1.8126626e-09 -2.1752124e-08 
    2700 1.9920842e-09            0 2.4190862e-13 1.7077426e-09 1.9062154e-08 
    2800 1.1310618e-09            0 3.5137783e-14 9.6951669e-10 3.4950081e-09 
    2900 8.557898e-10            0 4.1315753e-14 7.3357543e-10 8.0862239e-09 
    3000 5.5720191e-10            0 1.8036677e-14 4.7761968e-10 5.7872549e-09 
    3100 3.5362251e-10            0 1.1656681e-14 3.0311666e-10 4.4278296e-09 
    3200 2.1231348e-10            0 9.5776527e-15 1.8199256e-10 4.4175236e-09 
    3300 1.2701117e-10            0 6.1423065e-15 1.0887286e-10 3.6337664e-09 
    3400 8.3395996e-11            0 2.4042288e-15 7.1484687e-11 2.2517352e-09 
    3500 5.8313179e-11            0 6.1071011e-16 4.9983336e-11 1.0123784e-09 
    3600 3.9621735e-11            0 2.6733102e-16 3.3961754e-11 7.4074786e-10 
    3700 3.1432406e-11            0 2.2908185e-16 2.6942291e-11 4.9948957e-10 
    3800 2.4638052e-11            0 2.2504473e-16 2.1118555e-11 5.8105833e-10 
    3900 1.9030605e-11            0 3.3433365e-16 1.6312281e-11 8.0355813e-10 
    4000 1.3999011e-11            0 2.0427473e-16 1.1999357e-11 5.9767179e-10 
Loop time of 5.75032 on 1 procs for 2000 steps with 7 atoms

6.0% CPU use with 1 MPI tasks x no OpenMP threads

Minimization stats:
  Stopping criterion = max iterations
  Energy initial, next-to-last, final = 
    2.45198523113125e-11 3.30921443738467e-16 2.04274730409385e-16
  Force two-norm initial, final = 0.00011431629 7.4468120e-06
  Force max component initial, final = 5.2031602e-05 3.4136725e-06
  Final line search alpha, max atom move = 0.0000000 0.0000000
  Iterations, force evaluations = 2000 2000

MPI task timing breakdown:
Section |  min time  |  avg time  |  max time  |%varavg| %total
---------------------------------------------------------------
Pair    | 0          | 0          | 0          |   0.0 |  0.00
Bond    | 0.002421   | 0.002421   | 0.002421   |   0.0 |  0.04
Neigh   | 0          | 0          | 0          |   0.0 |  0.00
Comm    | 0.00121    | 0.00121    | 0.00121    |   0.0 |  0.02
Output  | 0.050284   | 0.050284   | 0.050284   |   0.0 |  0.87
Modify  | 1.8232     | 1.8232     | 1.8232     |   0.0 | 31.71
Other   |            | 3.873      |            |       | 67.36

Nlocal:        7.00000 ave           7 max           7 min
Histogram: 1 0 0 0 0 0 0 0 0 0
Nghost:        0.00000 ave           0 max           0 min
Histogram: 1 0 0 0 0 0 0 0 0 0
Neighs:        0.00000 ave           0 max           0 min
Histogram: 1 0 0 0 0 0 0 0 0 0

Total # of neighbors = 0
Ave neighs/atom = 0.0000000
Ave special neighs/atom = 6.0000000
Neighbor list builds = 0
Dangerous builds = 0
Total wall time: 0:00:18
