LAMMPS (29 Oct 2020)
Processor partition = 96
# LAMMPS task file for neb

      dimension   2
     atom_style bond
     boundary   f f p
     bond_style harmonic
     atom_modify	map array sort 0 0.0

     variable  u uloop 100
     read_data  temp/h_-949394771887858407_8558592821602001382_0.txt
Reading data file ...
  orthogonal box = (-6.0000000 -6.0000000 -6.0000000) to (6.0000000 6.0000000 6.0000000)
  1 by 1 by 1 MPI processor grid
  reading atoms ...
  7 atoms
  scanning bonds ...
  3 = max bonds/atom
  reading bonds ...
  11 bonds
Finding 1-2 1-3 1-4 neighbors ...
  special bond factors lj:    0.0      0.0      0.0     
  special bond factors coul:  0.0      0.0      0.0     
     4 = max # of 1-2 neighbors
     9 = max # of 1-3 neighbors
    28 = max # of 1-4 neighbors
     6 = max # of special neighbors
  special bonds CPU = 0.000 seconds
  read_data CPU = 0.042 seconds
     timestep  0.1
     fix 1 all neb 1.0 parallel ideal

     thermo 100
     fix 2 all enforce2d
     dump 1 all atom 10 temp/0dump.neb.$u
     dump 1 all atom 10 temp/0dump.neb.97
      min_style quickmin
     neb 1e-08 0.0 2000 2000 40 final lammps_util/script/prion_neb_pos.lj0
WARNING: Using 'neigh_modify every 1 delay 0 check yes' setting during minimization (../min.cpp:187)
Per MPI rank memory allocation (min/avg/max) = 4.840 | 4.840 | 4.840 Mbytes
Step Temp E_pair E_mol TotEng Press 
       0            0            0 0.0037717446 0.0037717446 0.0033923488 
     100 0.00024953599            0 3.5447658e-05 0.00024933565 5.9165855e-06 
     200 1.2436667e-06            0 9.4917315e-08 1.1609174e-06 1.1277164e-06 
     300 5.800234e-06            0 1.2884486e-07 5.100474e-06 2.2108673e-06 
     400 6.4575145e-06            0 1.0821033e-07 5.6432227e-06 1.7780373e-06 
     500 2.9517473e-05            0 1.2206268e-07 2.5422754e-05 -5.6777241e-06 
     600 1.1941316e-05            0 7.7427666e-08 1.0312841e-05 5.0315751e-06 
     700 2.4462292e-05            0 5.5087207e-08 2.1022766e-05 -3.1716153e-06 
     800 2.7719991e-05            0 1.6368976e-07 2.3923682e-05 -4.5037649e-08 
     900 5.6383982e-06            0 1.3229971e-09 4.8342357e-06 7.7895635e-07 
    1000 7.7195834e-07            0 3.0163237e-09 6.646949e-07 -1.1552605e-06 
    1100 2.1987689e-06            0 1.1846152e-08 1.8965052e-06 -6.6188576e-07 
    1200 2.6820055e-07            0 1.6949824e-09 2.3158116e-07 -4.1695818e-07 
    1300 5.8107825e-06            0 7.949611e-09 4.9886204e-06 3.2268181e-06 
    1400 1.5758528e-08            0 3.1367692e-10 1.3820986e-08 -2.0783068e-07 
    1500 7.2091956e-05            0 4.2958698e-08 6.1836064e-05 1.0006801e-05 
    1600 2.5636887e-07            0 9.4293879e-10 2.2068769e-07 -4.4245178e-07 
    1700 5.5706568e-09            0 2.7142702e-10 5.0462757e-09 -2.1415905e-08 
    1800 1.1192532e-09            0 2.0036568e-10 1.1597255e-09 2.4120984e-08 
    1900 3.018323e-07            0 2.8922229e-10 2.5900263e-07 4.3708665e-07 
    2000 3.1831049e-05            0 1.529862e-08 2.7299055e-05 -3.8694773e-06 
Loop time of 9.32078 on 1 procs for 2000 steps with 7 atoms

4.6% CPU use with 1 MPI tasks x no OpenMP threads

Minimization stats:
  Stopping criterion = max iterations
  Energy initial, next-to-last, final = 
    0.00377174458235598 1.36463861363276e-08 1.5298619968686e-08
  Force two-norm initial, final = 0.41959748 0.026451427
  Force max component initial, final = 0.21799458 0.018695992
  Final line search alpha, max atom move = 0.0000000 0.0000000
  Iterations, force evaluations = 2000 2000

MPI task timing breakdown:
Section |  min time  |  avg time  |  max time  |%varavg| %total
---------------------------------------------------------------
Pair    | 0          | 0          | 0          |   0.0 |  0.00
Bond    | 0.002805   | 0.002805   | 0.002805   |   0.0 |  0.03
Neigh   | 2.4e-05    | 2.4e-05    | 2.4e-05    |   0.0 |  0.00
Comm    | 0.001276   | 0.001276   | 0.001276   |   0.0 |  0.01
Output  | 0.2956     | 0.2956     | 0.2956     |   0.0 |  3.17
Modify  | 3.0268     | 3.0268     | 3.0268     |   0.0 | 32.47
Other   |            | 5.994      |            |       | 64.31

Nlocal:        7.00000 ave           7 max           7 min
Histogram: 1 0 0 0 0 0 0 0 0 0
Nghost:        0.00000 ave           0 max           0 min
Histogram: 1 0 0 0 0 0 0 0 0 0
Neighs:        0.00000 ave           0 max           0 min
Histogram: 1 0 0 0 0 0 0 0 0 0

Total # of neighbors = 0
Ave neighs/atom = 0.0000000
Ave special neighs/atom = 6.0000000
Neighbor list builds = 7
Dangerous builds = 0
WARNING: Using 'neigh_modify every 1 delay 0 check yes' setting during minimization (../min.cpp:187)
Per MPI rank memory allocation (min/avg/max) = 4.840 | 4.840 | 4.840 Mbytes
Step Temp E_pair E_mol TotEng Press 
    2000            0            0 1.529862e-08 1.529862e-08 -5.195771e-06 
    2100 8.1169621e-05            0 2.5582362e-08 6.9599543e-05 -2.2248627e-06 
    2200 9.8485216e-06            0 3.2792767e-09 8.4448692e-06 2.4332683e-06 
    2300 4.6119869e-09            0 1.6033246e-10 4.1134641e-09 9.7314178e-08 
    2400 4.063287e-06            0 4.5261631e-09 3.4873436e-06 -2.6340358e-06 
    2500 3.2075585e-08            0 8.8866391e-10 2.8382023e-08 -9.8414934e-08 
    2600 2.0599877e-07            0 6.3545845e-10 1.7720583e-07 -3.5431019e-07 
    2700 5.0161484e-07            0 7.4296104e-10 4.3069854e-07 -6.7886084e-07 
    2800 9.3756882e-08            0 5.0959331e-10 8.0872635e-08 -1.4888143e-07 
    2900 6.6293458e-08            0 5.4358723e-10 5.7366552e-08 1.6767833e-07 
    3000 7.3272438e-11            0 5.2020424e-10 5.8300918e-10 -1.3233518e-09 
    3100 2.3393465e-08            0 5.3713958e-10 2.0588681e-08 1.567734e-07 
    3200 2.2840485e-10            0 5.2961857e-10 7.2539416e-10 5.9458651e-09 
    3300 7.7790699e-11            0 5.3354947e-10 6.0022721e-10 6.2267075e-09 
    3400 1.5815917e-10            0 5.3741928e-10 6.7298428e-10 5.3185264e-09 
    3500 1.466821e-10            0 5.4111058e-10 6.6683809e-10 5.8003634e-09 
    3600 1.0528458e-10            0 5.4490176e-10 6.3514569e-10 5.8131173e-09 
    3700 5.1628872e-11            0 5.4868911e-10 5.9294243e-10 5.8182597e-09 
    3800 7.3692167e-11            0 5.5252216e-10 6.1568687e-10 5.8147921e-09 
    3900 1.545918e-10            0 5.5639634e-10 6.889036e-10 5.8366866e-09 
    4000 4.9538832e-11            0 5.6007617e-10 6.0253803e-10 5.7635013e-09 
Loop time of 7.65557 on 1 procs for 2000 steps with 7 atoms

5.7% CPU use with 1 MPI tasks x no OpenMP threads

Minimization stats:
  Stopping criterion = max iterations
  Energy initial, next-to-last, final = 
    1.5298619968686e-08 5.60043541343637e-10 5.60076172200627e-10
  Force two-norm initial, final = 0.027608955 1.1625782e-05
  Force max component initial, final = 0.01949977 7.8056849e-06
  Final line search alpha, max atom move = 0.0000000 0.0000000
  Iterations, force evaluations = 2000 2000

MPI task timing breakdown:
Section |  min time  |  avg time  |  max time  |%varavg| %total
---------------------------------------------------------------
Pair    | 0          | 0          | 0          |   0.0 |  0.00
Bond    | 0.002948   | 0.002948   | 0.002948   |   0.0 |  0.04
Neigh   | 0          | 0          | 0          |   0.0 |  0.00
Comm    | 0.001314   | 0.001314   | 0.001314   |   0.0 |  0.02
Output  | 0.038378   | 0.038378   | 0.038378   |   0.0 |  0.50
Modify  | 2.5543     | 2.5543     | 2.5543     |   0.0 | 33.37
Other   |            | 5.059      |            |       | 66.08

Nlocal:        7.00000 ave           7 max           7 min
Histogram: 1 0 0 0 0 0 0 0 0 0
Nghost:        0.00000 ave           0 max           0 min
Histogram: 1 0 0 0 0 0 0 0 0 0
Neighs:        0.00000 ave           0 max           0 min
Histogram: 1 0 0 0 0 0 0 0 0 0

Total # of neighbors = 0
Ave neighs/atom = 0.0000000
Ave special neighs/atom = 6.0000000
Neighbor list builds = 0
Dangerous builds = 0
Total wall time: 0:00:17
