LAMMPS (29 Oct 2020)
Processor partition = 39
# LAMMPS task file for neb

      dimension   2
     atom_style bond
     boundary   f f p
     bond_style harmonic
     atom_modify	map array sort 0 0.0

     variable  u uloop 100
     read_data  temp/h_-6779599749597012937_-7482915513354146445_0.txt
Reading data file ...
  orthogonal box = (-6.0000000 -6.0000000 -6.0000000) to (6.0000000 6.0000000 6.0000000)
  1 by 1 by 1 MPI processor grid
  reading atoms ...
  7 atoms
  scanning bonds ...
  3 = max bonds/atom
  reading bonds ...
  11 bonds
Finding 1-2 1-3 1-4 neighbors ...
  special bond factors lj:    0.0      0.0      0.0     
  special bond factors coul:  0.0      0.0      0.0     
     4 = max # of 1-2 neighbors
     9 = max # of 1-3 neighbors
    28 = max # of 1-4 neighbors
     6 = max # of special neighbors
  special bonds CPU = 0.000 seconds
  read_data CPU = 0.074 seconds
     timestep  0.1
     fix 1 all neb 1.0 parallel ideal

     thermo 100
     fix 2 all enforce2d
     dump 1 all atom 10 temp/0dump.neb.$u
     dump 1 all atom 10 temp/0dump.neb.40
      min_style quickmin
     neb 1e-08 0.0 2000 2000 40 final lammps_util/script/prion_neb_pos.lj0
WARNING: Using 'neigh_modify every 1 delay 0 check yes' setting during minimization (../min.cpp:187)
Per MPI rank memory allocation (min/avg/max) = 4.840 | 4.840 | 4.840 Mbytes
Step Temp E_pair E_mol TotEng Press 
       0            0            0  0.072331126  0.072331126   0.01367374 
     100 2.0169964e-06            0 6.0049152e-06 7.7337693e-06 8.7608127e-07 
     200 6.7169048e-07            0 3.0741137e-06 3.6498484e-06 -1.0940581e-07 
     300 4.8503342e-08            0 1.8799836e-06 1.9215579e-06 -3.0051046e-07 
     400 2.8892702e-07            0 1.0858088e-06 1.3334606e-06 -2.4560809e-07 
     500 2.0747575e-07            0 5.8001835e-07 7.5785471e-07 -1.8077083e-07 
     600 1.8267092e-07            0 2.9423316e-07 4.5080823e-07 -1.2335852e-07 
     700 1.9104312e-07            0 1.4453074e-07 3.0828198e-07 -8.3005011e-08 
     800 1.0712651e-07            0 7.6571294e-08 1.6839401e-07 -2.6968211e-08 
     900 5.0372733e-08            0 4.0341801e-08 8.351843e-08 -6.198382e-08 
    1000 3.8946338e-08            0 2.1067542e-08 5.4450118e-08 -4.6253402e-09 
    1100 4.518337e-08            0 1.0690618e-08 4.9419221e-08 9.8949449e-09 
    1200 3.4636836e-08            0 5.3108262e-09 3.4999543e-08 6.3073464e-09 
    1300 2.6659987e-08            0 2.5874335e-09 2.5438851e-08 8.9916034e-09 
    1400 2.0353012e-08            0 1.2377231e-09 1.8683162e-08 1.7176258e-08 
    1500 7.6718965e-09            0 5.8549036e-10 7.1614016e-09 2.9897138e-08 
    1600 7.987581e-09            0 2.7373543e-10 7.1202335e-09 -2.8471496e-08 
    1700 7.9950965e-09            0 1.2774926e-10 6.9806892e-09 8.745926e-09 
    1800 3.6140734e-09            0 5.8709048e-11 3.1564863e-09 2.1085695e-09 
    1900 2.7492589e-09            0 2.6821261e-11 2.3833289e-09 -1.82699e-09 
    2000 1.9159039e-09            0 1.2480131e-11 1.6546834e-09 2.5626112e-08 
Loop time of 12.3173 on 1 procs for 2000 steps with 7 atoms

3.8% CPU use with 1 MPI tasks x no OpenMP threads

Minimization stats:
  Stopping criterion = max iterations
  Energy initial, next-to-last, final = 
    0.0723311259520549 1.25033977769766e-11 1.24801306878032e-11
  Force two-norm initial, final = 2.8081870 8.7748000e-05
  Force max component initial, final = 1.4931937 4.0854169e-05
  Final line search alpha, max atom move = 0.0000000 0.0000000
  Iterations, force evaluations = 2000 2000

MPI task timing breakdown:
Section |  min time  |  avg time  |  max time  |%varavg| %total
---------------------------------------------------------------
Pair    | 0          | 0          | 0          |   0.0 |  0.00
Bond    | 0.003058   | 0.003058   | 0.003058   |   0.0 |  0.02
Neigh   | 2e-06      | 2e-06      | 2e-06      |   0.0 |  0.00
Comm    | 0.001286   | 0.001286   | 0.001286   |   0.0 |  0.01
Output  | 0.20059    | 0.20059    | 0.20059    |   0.0 |  1.63
Modify  | 3.835      | 3.835      | 3.835      |   0.0 | 31.14
Other   |            | 8.277      |            |       | 67.20

Nlocal:        7.00000 ave           7 max           7 min
Histogram: 1 0 0 0 0 0 0 0 0 0
Nghost:        0.00000 ave           0 max           0 min
Histogram: 1 0 0 0 0 0 0 0 0 0
Neighs:        0.00000 ave           0 max           0 min
Histogram: 1 0 0 0 0 0 0 0 0 0

Total # of neighbors = 0
Ave neighs/atom = 0.0000000
Ave special neighs/atom = 6.0000000
Neighbor list builds = 1
Dangerous builds = 0
WARNING: Using 'neigh_modify every 1 delay 0 check yes' setting during minimization (../min.cpp:187)
Per MPI rank memory allocation (min/avg/max) = 4.840 | 4.840 | 4.840 Mbytes
Step Temp E_pair E_mol TotEng Press 
    2000            0            0 1.2480131e-11 1.2480131e-11 2.5546282e-08 
    2100 8.0776135e-09            0 5.9767578e-12 6.9296454e-09 3.5154442e-09 
    2200 6.7200178e-09            0 2.7930332e-12 5.7628083e-09 -6.9914702e-09 
    2300 5.2739667e-09            0 1.4440128e-12 4.5219869e-09 -1.8375322e-08 
    2400 4.3853153e-09            0 5.4090264e-13 3.7593826e-09 3.0573704e-09 
    2500 3.5234192e-09            0 3.8869714e-13 3.0204623e-09 2.0426699e-08 
    2600 1.8819599e-09            0 3.3655329e-13 1.6134451e-09 -2.0549646e-08 
    2700 1.6879244e-09            0 1.4948828e-13 1.4469419e-09 1.6587898e-08 
    2800 9.7464383e-10            0 1.987439e-14 8.3542887e-10 3.9083597e-09 
    2900 9.1664038e-10            0 1.7829402e-14 7.8570959e-10 5.2865627e-09 
    3000 7.0477016e-10            0 1.7915854e-14 6.0410662e-10 4.9504834e-09 
    3100 4.7779859e-10            0 7.8466693e-15 4.0954949e-10 3.6371544e-09 
    3200 3.1920205e-10            0  5.04293e-15 2.736068e-10 2.7906154e-09 
    3300 2.1181548e-10            0 2.0443158e-15 1.8155817e-10 1.8730237e-09 
    3400 1.4773989e-10            0 1.1120473e-15 1.266353e-10 1.3544307e-09 
    3500 1.1162967e-10            0 2.8852553e-15 9.5685456e-11 1.9837812e-09 
    3600 8.2537903e-11            0 9.218873e-16 7.0747696e-11 -1.5076714e-09 
    3700 5.9743515e-11            0 1.6200516e-15 5.1210347e-11 -1.8985732e-09 
    3800 4.2241814e-11            0 1.1947215e-15 3.6208464e-11 -1.6094686e-09 
    3900 2.9058486e-11            0 9.328669e-16 2.4908207e-11 -1.400357e-09 
    4000 2.0174393e-11            0 2.2618071e-16 1.7292563e-11 -4.9348124e-10 
Loop time of 5.754 on 1 procs for 2000 steps with 7 atoms

6.0% CPU use with 1 MPI tasks x no OpenMP threads

Minimization stats:
  Stopping criterion = max iterations
  Energy initial, next-to-last, final = 
    1.24801306878032e-11 3.34035064954943e-16 2.26180714283971e-16
  Force two-norm initial, final = 0.00010694294 5.6611756e-06
  Force max component initial, final = 4.9775651e-05 2.5998894e-06
  Final line search alpha, max atom move = 0.0000000 0.0000000
  Iterations, force evaluations = 2000 2000

MPI task timing breakdown:
Section |  min time  |  avg time  |  max time  |%varavg| %total
---------------------------------------------------------------
Pair    | 0          | 0          | 0          |   0.0 |  0.00
Bond    | 0.002647   | 0.002647   | 0.002647   |   0.0 |  0.05
Neigh   | 0          | 0          | 0          |   0.0 |  0.00
Comm    | 0.001167   | 0.001167   | 0.001167   |   0.0 |  0.02
Output  | 0.049869   | 0.049869   | 0.049869   |   0.0 |  0.87
Modify  | 1.8273     | 1.8273     | 1.8273     |   0.0 | 31.76
Other   |            | 3.873      |            |       | 67.31

Nlocal:        7.00000 ave           7 max           7 min
Histogram: 1 0 0 0 0 0 0 0 0 0
Nghost:        0.00000 ave           0 max           0 min
Histogram: 1 0 0 0 0 0 0 0 0 0
Neighs:        0.00000 ave           0 max           0 min
Histogram: 1 0 0 0 0 0 0 0 0 0

Total # of neighbors = 0
Ave neighs/atom = 0.0000000
Ave special neighs/atom = 6.0000000
Neighbor list builds = 0
Dangerous builds = 0
Total wall time: 0:00:18
