LAMMPS (29 Oct 2020)
Processor partition = 22
# LAMMPS task file for neb

      dimension   2
     atom_style bond
     boundary   f f p
     bond_style harmonic
     atom_modify	map array sort 0 0.0

     variable  u uloop 100
     read_data  temp/h_-6779599749597012937_-7482915513354146445_0.txt
Reading data file ...
  orthogonal box = (-6.0000000 -6.0000000 -6.0000000) to (6.0000000 6.0000000 6.0000000)
  1 by 1 by 1 MPI processor grid
  reading atoms ...
  7 atoms
  scanning bonds ...
  3 = max bonds/atom
  reading bonds ...
  11 bonds
Finding 1-2 1-3 1-4 neighbors ...
  special bond factors lj:    0.0      0.0      0.0     
  special bond factors coul:  0.0      0.0      0.0     
     4 = max # of 1-2 neighbors
     9 = max # of 1-3 neighbors
    28 = max # of 1-4 neighbors
     6 = max # of special neighbors
  special bonds CPU = 0.000 seconds
  read_data CPU = 0.081 seconds
     timestep  0.1
     fix 1 all neb 1.0 parallel ideal

     thermo 100
     fix 2 all enforce2d
     dump 1 all atom 10 temp/0dump.neb.$u
     dump 1 all atom 10 temp/0dump.neb.23
      min_style quickmin
     neb 1e-08 0.0 2000 2000 40 final lammps_util/script/prion_neb_pos.lj0
WARNING: Using 'neigh_modify every 1 delay 0 check yes' setting during minimization (../min.cpp:187)
Per MPI rank memory allocation (min/avg/max) = 4.840 | 4.840 | 4.840 Mbytes
Step Temp E_pair E_mol TotEng Press 
       0            0            0  0.044606638  0.044606638  0.011343729 
     100 1.1564146e-06            0 1.2576234e-06 2.2488359e-06  8.72372e-07 
     200  9.41991e-08            0 1.7115901e-07 2.519011e-07 6.7907814e-08 
     300 3.4188528e-09            0 7.043126e-08 7.3361705e-08 -4.6986924e-08 
     400 2.5006285e-08            0 3.2978714e-08 5.4412672e-08 -4.0283414e-08 
     500 2.830838e-08            0 1.5103901e-08 3.9368227e-08 -2.680132e-08 
     600 3.8354806e-08            0 6.8338127e-09 3.9709361e-08 -1.3663325e-08 
     700 4.0560353e-08            0 3.0752934e-09 3.784131e-08 -2.0108506e-08 
     800 1.8199606e-08            0 1.5323164e-09 1.7131979e-08 -1.1528475e-08 
     900 1.0553988e-08            0 7.6737737e-10 9.8136524e-09 -2.0718971e-08 
    1000 1.5572257e-08            0 3.8371571e-10 1.3731365e-08 1.7188755e-08 
    1100 1.413868e-08            0 1.8721218e-10 1.2306081e-08 1.4415754e-08 
    1200 9.556731e-09            0 8.9734597e-11 8.2812183e-09  8.27481e-09 
    1300 7.4409793e-09            0 4.2299168e-11 6.4202814e-09 7.9126362e-09 
    1400 6.3970911e-09            0 1.9628723e-11 5.5028497e-09 1.1677371e-08 
    1500 3.6410944e-09            0 9.1944429e-12 3.1301325e-09 2.1424885e-08 
    1600 2.4958869e-09            0 4.1242761e-12 2.1434559e-09 -1.171012e-08 
    1700 2.2947058e-09            0 1.8309547e-12 1.9687216e-09 4.9331115e-09 
    1800 1.3068182e-09            0 8.0824727e-13 1.1209381e-09 2.9267332e-09 
    1900 6.6128734e-10            0 3.5441937e-13 5.6717214e-10 -8.5323451e-10 
    2000 8.3241356e-10            0 2.4374754e-13 7.1374108e-10 1.3914808e-08 
Loop time of 12.3183 on 1 procs for 2000 steps with 7 atoms

2.8% CPU use with 1 MPI tasks x no OpenMP threads

Minimization stats:
  Stopping criterion = max iterations
  Energy initial, next-to-last, final = 
    0.0446066377411528 2.24611548238096e-13 2.43747544160427e-13
  Force two-norm initial, final = 2.1735345 4.1650763e-05
  Force max component initial, final = 1.1230512 2.0655581e-05
  Final line search alpha, max atom move = 0.0000000 0.0000000
  Iterations, force evaluations = 2000 2000

MPI task timing breakdown:
Section |  min time  |  avg time  |  max time  |%varavg| %total
---------------------------------------------------------------
Pair    | 0          | 0          | 0          |   0.0 |  0.00
Bond    | 0.002953   | 0.002953   | 0.002953   |   0.0 |  0.02
Neigh   | 2e-06      | 2e-06      | 2e-06      |   0.0 |  0.00
Comm    | 0.00128    | 0.00128    | 0.00128    |   0.0 |  0.01
Output  | 0.20742    | 0.20742    | 0.20742    |   0.0 |  1.68
Modify  | 3.6245     | 3.6245     | 3.6245     |   0.0 | 29.42
Other   |            | 8.482      |            |       | 68.86

Nlocal:        7.00000 ave           7 max           7 min
Histogram: 1 0 0 0 0 0 0 0 0 0
Nghost:        0.00000 ave           0 max           0 min
Histogram: 1 0 0 0 0 0 0 0 0 0
Neighs:        0.00000 ave           0 max           0 min
Histogram: 1 0 0 0 0 0 0 0 0 0

Total # of neighbors = 0
Ave neighs/atom = 0.0000000
Ave special neighs/atom = 6.0000000
Neighbor list builds = 1
Dangerous builds = 0
WARNING: Using 'neigh_modify every 1 delay 0 check yes' setting during minimization (../min.cpp:187)
Per MPI rank memory allocation (min/avg/max) = 4.840 | 4.840 | 4.840 Mbytes
Step Temp E_pair E_mol TotEng Press 
    2000            0            0 2.4374754e-13 2.4374754e-13 1.3880124e-08 
    2100 4.1334263e-09            0 1.2873689e-13 3.5430656e-09 1.2805329e-08 
    2200 2.2964767e-09            0 2.582063e-14 1.9684344e-09 8.8898054e-10 
    2300 1.5459161e-09            0 1.2975584e-14 1.3250839e-09 -2.3630623e-09 
    2400 1.2832571e-09            0 3.1320348e-15 1.0999378e-09 -1.0995352e-09 
    2500 1.2585424e-09            0 1.1551099e-14 1.0787621e-09 -3.8799241e-09 
    2600 7.0733854e-10            0 2.2654264e-14 6.0631284e-10 5.6576694e-09 
    2700 6.9401301e-10            0 1.7766802e-14 5.9488606e-10 -6.8186178e-09 
    2800 2.7837999e-10            0 4.0233252e-16 2.3861182e-10 -6.9791499e-10 
    2900 2.2645804e-10            0 8.6348573e-17 1.9410698e-10 2.5865989e-10 
    3000 1.763323e-10            0 1.5142733e-15 1.5114348e-10 2.1050177e-09 
    3100  1.28451e-10            0 7.7177818e-17 1.1010093e-10 -2.2332378e-10 
    3200 8.4268709e-11            0 2.7336864e-16 7.2230595e-11 -3.6075284e-10 
    3300 5.5269847e-11            0 4.3962391e-16 4.7374594e-11 3.9677892e-10 
    3400 3.8528095e-11            0 1.5158864e-16 3.3024233e-11 4.7172895e-10 
    3500 2.5785545e-11            0 8.0441809e-17 2.2101976e-11 4.6691209e-11 
    3600 1.9188555e-11            0 1.8325074e-16 1.6447516e-11 -6.4535748e-10 
    3700 1.3987565e-11            0 5.6393953e-18 1.1989347e-11 -4.5404584e-11 
    3800 1.0682166e-11            0 2.2039179e-17 9.1561645e-12 -2.0079245e-10 
    3900 8.1214374e-12            0 5.4094869e-17 6.9612862e-12 3.3016705e-10 
    4000 6.4745426e-12            0 4.2258386e-17 5.5496502e-12 2.8506575e-10 
Loop time of 5.74458 on 1 procs for 2000 steps with 7 atoms

4.4% CPU use with 1 MPI tasks x no OpenMP threads

Minimization stats:
  Stopping criterion = max iterations
  Energy initial, next-to-last, final = 
    2.43747544160427e-13 5.33937129054301e-17 4.22583864435253e-17
  Force two-norm initial, final = 5.2476683e-05 3.1731726e-06
  Force max component initial, final = 2.6048012e-05 1.5784115e-06
  Final line search alpha, max atom move = 0.0000000 0.0000000
  Iterations, force evaluations = 2000 2000

MPI task timing breakdown:
Section |  min time  |  avg time  |  max time  |%varavg| %total
---------------------------------------------------------------
Pair    | 0          | 0          | 0          |   0.0 |  0.00
Bond    | 0.002442   | 0.002442   | 0.002442   |   0.0 |  0.04
Neigh   | 0          | 0          | 0          |   0.0 |  0.00
Comm    | 0.001172   | 0.001172   | 0.001172   |   0.0 |  0.02
Output  | 0.050027   | 0.050027   | 0.050027   |   0.0 |  0.87
Modify  | 1.7343     | 1.7343     | 1.7343     |   0.0 | 30.19
Other   |            | 3.957      |            |       | 68.88

Nlocal:        7.00000 ave           7 max           7 min
Histogram: 1 0 0 0 0 0 0 0 0 0
Nghost:        0.00000 ave           0 max           0 min
Histogram: 1 0 0 0 0 0 0 0 0 0
Neighs:        0.00000 ave           0 max           0 min
Histogram: 1 0 0 0 0 0 0 0 0 0

Total # of neighbors = 0
Ave neighs/atom = 0.0000000
Ave special neighs/atom = 6.0000000
Neighbor list builds = 0
Dangerous builds = 0
Total wall time: 0:00:18
