LAMMPS (29 Oct 2020)
Processor partition = 7
# LAMMPS task file for neb

      dimension   2
     atom_style bond
     boundary   f f p
     bond_style harmonic
     atom_modify	map array sort 0 0.0

     variable  u uloop 100
     read_data  temp/h_-6779599749597012937_-7482915513354146445_0.txt
Reading data file ...
  orthogonal box = (-6.0000000 -6.0000000 -6.0000000) to (6.0000000 6.0000000 6.0000000)
  1 by 1 by 1 MPI processor grid
  reading atoms ...
  7 atoms
  scanning bonds ...
  3 = max bonds/atom
  reading bonds ...
  11 bonds
Finding 1-2 1-3 1-4 neighbors ...
  special bond factors lj:    0.0      0.0      0.0     
  special bond factors coul:  0.0      0.0      0.0     
     4 = max # of 1-2 neighbors
     9 = max # of 1-3 neighbors
    28 = max # of 1-4 neighbors
     6 = max # of special neighbors
  special bonds CPU = 0.000 seconds
  read_data CPU = 0.074 seconds
     timestep  0.1
     fix 1 all neb 1.0 parallel ideal

     thermo 100
     fix 2 all enforce2d
     dump 1 all atom 10 temp/0dump.neb.$u
     dump 1 all atom 10 temp/0dump.neb.8
      min_style quickmin
     neb 1e-08 0.0 2000 2000 40 final lammps_util/script/prion_neb_pos.lj0
WARNING: Using 'neigh_modify every 1 delay 0 check yes' setting during minimization (../min.cpp:187)
Per MPI rank memory allocation (min/avg/max) = 4.840 | 4.840 | 4.840 Mbytes
Step Temp E_pair E_mol TotEng Press 
       0            0            0 0.0064707723 0.0064707723  0.004842235 
     100 1.1776681e-07            0 8.1625382e-08 1.8256837e-07 3.2879324e-07 
     200 2.9058372e-09            0 1.5429993e-09 4.0337169e-09 4.5255167e-08 
     300 3.5104685e-11            0 1.5517024e-10 1.8525997e-10 7.992629e-09 
     400 1.6428822e-09            0 6.1079569e-11 1.4692643e-09 1.230964e-09 
     500 2.307269e-09            0 2.6279385e-11 2.0039386e-09 9.3529265e-10 
     600 3.6914679e-09            0 1.1170232e-11 3.1752855e-09 -6.6404101e-10 
     700 2.9761299e-09            0 4.7073404e-12 2.5556759e-09 6.1477872e-09 
     800 1.058562e-11            0 2.3367859e-12 1.1410175e-11 1.8084049e-08 
     900 1.2500582e-10            0 1.0903851e-12 1.0823823e-10 1.1979459e-08 
    1000 7.9186765e-12            0 5.2125797e-13 7.3086949e-12 9.9578335e-09 
    1100 9.4172863e-10            0 2.123671e-13 8.0740834e-10 -2.0505188e-09 
    1200 7.4384396e-10            0 9.2514251e-14 6.3767305e-10 -1.4499155e-09 
    1300 6.5650948e-10            0 3.938381e-14 5.627618e-10 -1.7512551e-09 
    1400 6.2943102e-10            0 1.7827603e-14 5.3953013e-10 -2.8072264e-09 
    1500 4.6415719e-10            0 2.1383128e-14 3.9787041e-10 -5.7704613e-09 
    1600 2.5464658e-10            0 5.6672306e-15 2.1827417e-10  2.46802e-09 
    1700 2.1352742e-10            0 1.0617394e-15 1.8302457e-10 -1.0726979e-09 
    1800 1.4460433e-10            0 6.2090466e-16 1.2394719e-10 -9.9377173e-10 
    1900 6.0187466e-11            0 1.441014e-16 5.1589401e-11 -2.7519398e-10 
    2000 1.0539323e-10            0 1.4078445e-15 9.0338459e-11 1.6231405e-09 
Loop time of 12.3162 on 1 procs for 2000 steps with 7 atoms

4.0% CPU use with 1 MPI tasks x no OpenMP threads

Minimization stats:
  Stopping criterion = max iterations
  Energy initial, next-to-last, final = 
    0.00647077229307077 1.21469870991236e-15 1.40784454392852e-15
  Force two-norm initial, final = 0.80138164 1.1163017e-05
  Force max component initial, final = 0.37720744 5.1596010e-06
  Final line search alpha, max atom move = 0.0000000 0.0000000
  Iterations, force evaluations = 2000 2000

MPI task timing breakdown:
Section |  min time  |  avg time  |  max time  |%varavg| %total
---------------------------------------------------------------
Pair    | 0          | 0          | 0          |   0.0 |  0.00
Bond    | 0.003146   | 0.003146   | 0.003146   |   0.0 |  0.03
Neigh   | 0          | 0          | 0          |   0.0 |  0.00
Comm    | 0.00131    | 0.00131    | 0.00131    |   0.0 |  0.01
Output  | 0.20168    | 0.20168    | 0.20168    |   0.0 |  1.64
Modify  | 3.8522     | 3.8522     | 3.8522     |   0.0 | 31.28
Other   |            | 8.258      |            |       | 67.05

Nlocal:        7.00000 ave           7 max           7 min
Histogram: 1 0 0 0 0 0 0 0 0 0
Nghost:        0.00000 ave           0 max           0 min
Histogram: 1 0 0 0 0 0 0 0 0 0
Neighs:        0.00000 ave           0 max           0 min
Histogram: 1 0 0 0 0 0 0 0 0 0

Total # of neighbors = 0
Ave neighs/atom = 0.0000000
Ave special neighs/atom = 6.0000000
Neighbor list builds = 0
Dangerous builds = 0
WARNING: Using 'neigh_modify every 1 delay 0 check yes' setting during minimization (../min.cpp:187)
Per MPI rank memory allocation (min/avg/max) = 4.840 | 4.840 | 4.840 Mbytes
Step Temp E_pair E_mol TotEng Press 
    2000            0            0 1.4078445e-15 1.4078445e-15 1.6187491e-09 
    2100 1.5283047e-09            0 4.8001741e-14 1.3100235e-09 5.991002e-09 
    2200 4.8625191e-10            0 8.7795767e-15 4.1679613e-10 -4.3535665e-09 
    2300 2.1816877e-10            0 1.3169558e-15 1.8700312e-10 1.4390317e-09 
    2400 1.3767789e-10            0 1.6490036e-16 1.1800978e-10 7.641098e-10 
    2500 1.2997044e-10            0 8.7489985e-16 1.1140411e-10 1.4251374e-09 
    2600 7.5111593e-11            0 5.6309277e-16 6.4381929e-11 8.7559938e-10 
    2700 7.5250307e-11            0 1.3525976e-15 6.4501615e-11 1.471671e-09 
    2800   2.9568e-11            0 9.6012969e-17 2.5344096e-11 4.4133337e-10 
    2900 2.4305813e-11            0 7.6334254e-18 2.0833562e-11 -9.7780886e-11 
    3000 1.965637e-11            0 3.027104e-17 1.6848348e-11 2.8062626e-10 
    3100 1.5863911e-11            0 1.6144901e-16  1.35978e-11 6.2455775e-10 
    3200 1.128144e-11            0 9.2619541e-17 9.6698984e-12 4.6370118e-10 
    3300 7.5565012e-12            0 5.0068127e-17 6.4770511e-12 3.2626208e-10 
    3400 4.9926577e-12            0 1.5975672e-17 4.2794368e-12 1.2695451e-10 
    3500 3.1734163e-12            0 4.2455992e-18 2.7200753e-12 -6.2992186e-11 
    3600 2.1027883e-12            0 6.853871e-17 1.8024585e-12 3.8765707e-10 
    3700 1.3163406e-12            0 2.5296905e-17 1.1283172e-12 2.3740174e-10 
    3800 8.8420672e-13            0 2.2754353e-18 7.5789375e-13 4.057212e-11 
    3900 5.8734605e-13            0 4.4457945e-18 5.0344392e-13 1.0463121e-10 
    4000 4.0601958e-13            0 5.3650625e-18 3.4802215e-13 1.0724155e-10 
Loop time of 5.75782 on 1 procs for 2000 steps with 7 atoms

6.4% CPU use with 1 MPI tasks x no OpenMP threads

Minimization stats:
  Stopping criterion = max iterations
  Energy initial, next-to-last, final = 
    1.40784454392852e-15 5.84854768927428e-18 5.36506251826274e-18
  Force two-norm initial, final = 1.4616067e-05 1.2734948e-06
  Force max component initial, final = 6.7671572e-06 5.9078438e-07
  Final line search alpha, max atom move = 0.0000000 0.0000000
  Iterations, force evaluations = 2000 2000

MPI task timing breakdown:
Section |  min time  |  avg time  |  max time  |%varavg| %total
---------------------------------------------------------------
Pair    | 0          | 0          | 0          |   0.0 |  0.00
Bond    | 0.002623   | 0.002623   | 0.002623   |   0.0 |  0.05
Neigh   | 0          | 0          | 0          |   0.0 |  0.00
Comm    | 0.001099   | 0.001099   | 0.001099   |   0.0 |  0.02
Output  | 0.049676   | 0.049676   | 0.049676   |   0.0 |  0.86
Modify  | 1.822      | 1.822      | 1.822      |   0.0 | 31.64
Other   |            | 3.882      |            |       | 67.43

Nlocal:        7.00000 ave           7 max           7 min
Histogram: 1 0 0 0 0 0 0 0 0 0
Nghost:        0.00000 ave           0 max           0 min
Histogram: 1 0 0 0 0 0 0 0 0 0
Neighs:        0.00000 ave           0 max           0 min
Histogram: 1 0 0 0 0 0 0 0 0 0

Total # of neighbors = 0
Ave neighs/atom = 0.0000000
Ave special neighs/atom = 6.0000000
Neighbor list builds = 0
Dangerous builds = 0
Total wall time: 0:00:18
