LAMMPS (29 Oct 2020)
Processor partition = 20
# LAMMPS task file for neb

      dimension   2
     atom_style bond
     boundary   f f p
     bond_style harmonic
     atom_modify	map array sort 0 0.0

     variable  u uloop 100
     read_data  temp/h_-6779599749597012937_-7482915513354146445_0.txt
Reading data file ...
  orthogonal box = (-6.0000000 -6.0000000 -6.0000000) to (6.0000000 6.0000000 6.0000000)
  1 by 1 by 1 MPI processor grid
  reading atoms ...
  7 atoms
  scanning bonds ...
  3 = max bonds/atom
  reading bonds ...
  11 bonds
Finding 1-2 1-3 1-4 neighbors ...
  special bond factors lj:    0.0      0.0      0.0     
  special bond factors coul:  0.0      0.0      0.0     
     4 = max # of 1-2 neighbors
     9 = max # of 1-3 neighbors
    28 = max # of 1-4 neighbors
     6 = max # of special neighbors
  special bonds CPU = 0.000 seconds
  read_data CPU = 0.082 seconds
     timestep  0.1
     fix 1 all neb 1.0 parallel ideal

     thermo 100
     fix 2 all enforce2d
     dump 1 all atom 10 temp/0dump.neb.$u
     dump 1 all atom 10 temp/0dump.neb.21
      min_style quickmin
     neb 1e-08 0.0 2000 2000 40 final lammps_util/script/prion_neb_pos.lj0
WARNING: Using 'neigh_modify every 1 delay 0 check yes' setting during minimization (../min.cpp:187)
Per MPI rank memory allocation (min/avg/max) = 4.840 | 4.840 | 4.840 Mbytes
Step Temp E_pair E_mol TotEng Press 
       0            0            0  0.039049108  0.039049108  0.010747159 
     100 9.7980978e-07            0 9.7430174e-07 1.8141387e-06 8.2543097e-07 
     200 6.4834885e-08            0 1.0380257e-07 1.5937533e-07 7.2087086e-08 
     300 2.2395283e-09            0 4.0413258e-08 4.2332853e-08 -3.255985e-08 
     400 1.8228815e-08            0 1.8727891e-08 3.435259e-08 -2.9385728e-08 
     500 2.2254451e-08            0 8.526394e-09 2.7601638e-08 -1.9517494e-08 
     600 3.1208047e-08            0 3.8427762e-09 3.059253e-08 -9.1646646e-09 
     700 3.2305266e-08            0 1.7247041e-09 2.9414933e-08 -1.7379053e-08 
     800 1.2106462e-08            0 8.5787749e-10 1.1234845e-08 -1.5156321e-08 
     900 7.7110778e-09            0 4.2901662e-10 7.0385119e-09 -2.0120598e-08 
    1000 1.1636911e-08            0 2.1415617e-10 1.0188652e-08 1.2760554e-08 
    1100 1.1457761e-08            0 1.0432692e-10 9.9252646e-09 1.2834605e-08 
    1200 7.7364051e-09            0 4.9903869e-11 6.6811083e-09 7.3954504e-09 
    1300 6.0528929e-09            0 2.3467951e-11 5.2116619e-09 7.0694468e-09 
    1400 5.2730348e-09            0 1.0864622e-11 4.5306087e-09 1.0437297e-08 
    1500 3.126312e-09            0 5.1238802e-12 2.6848199e-09 1.9427582e-08 
    1600 2.0632984e-09            0 2.276379e-12 1.7708179e-09 -1.017788e-08 
    1700 1.8737876e-09            0 9.9856941e-13 1.6071022e-09 4.3556169e-09 
    1800 1.0945765e-09            0 4.3776903e-13 9.3864618e-10 2.724797e-09 
    1900 5.2962778e-10            0 1.9072552e-13 4.5415739e-10 -7.7250931e-10 
    2000 7.073888e-10            0 1.5289124e-13 6.0648615e-10 1.2373204e-08 
Loop time of 12.3188 on 1 procs for 2000 steps with 7 atoms

2.8% CPU use with 1 MPI tasks x no OpenMP threads

Minimization stats:
  Stopping criterion = max iterations
  Energy initial, next-to-last, final = 
    0.0390491078478038 1.37364165803339e-13 1.52891241647844e-13
  Force two-norm initial, final = 2.0261310 3.7156904e-05
  Force max component initial, final = 1.0370059 1.8358212e-05
  Final line search alpha, max atom move = 0.0000000 0.0000000
  Iterations, force evaluations = 2000 2000

MPI task timing breakdown:
Section |  min time  |  avg time  |  max time  |%varavg| %total
---------------------------------------------------------------
Pair    | 0          | 0          | 0          |   0.0 |  0.00
Bond    | 0.002972   | 0.002972   | 0.002972   |   0.0 |  0.02
Neigh   | 3e-06      | 3e-06      | 3e-06      |   0.0 |  0.00
Comm    | 0.00147    | 0.00147    | 0.00147    |   0.0 |  0.01
Output  | 0.20271    | 0.20271    | 0.20271    |   0.0 |  1.65
Modify  | 3.5965     | 3.5965     | 3.5965     |   0.0 | 29.20
Other   |            | 8.515      |            |       | 69.12

Nlocal:        7.00000 ave           7 max           7 min
Histogram: 1 0 0 0 0 0 0 0 0 0
Nghost:        0.00000 ave           0 max           0 min
Histogram: 1 0 0 0 0 0 0 0 0 0
Neighs:        0.00000 ave           0 max           0 min
Histogram: 1 0 0 0 0 0 0 0 0 0

Total # of neighbors = 0
Ave neighs/atom = 0.0000000
Ave special neighs/atom = 6.0000000
Neighbor list builds = 1
Dangerous builds = 0
WARNING: Using 'neigh_modify every 1 delay 0 check yes' setting during minimization (../min.cpp:187)
Per MPI rank memory allocation (min/avg/max) = 4.840 | 4.840 | 4.840 Mbytes
Step Temp E_pair E_mol TotEng Press 
    2000            0            0 1.5289124e-13 1.5289124e-13 1.234373e-08 
    2100 3.7850095e-09            0 1.0853223e-13 3.2444024e-09 1.3640668e-08 
    2200 2.0415937e-09            0 7.346992e-14 1.7500109e-09 1.2414611e-08 
    2300 1.3297861e-09            0 2.9743705e-14 1.1398464e-09 -5.3352197e-09 
    2400 1.0463536e-09            0 4.5424813e-15 8.9687907e-10 -1.695185e-09 
    2500 1.0013995e-09            0 1.1875608e-15 8.583436e-10 -1.4608967e-09 
    2600 5.4744564e-10            0 4.2134858e-16 4.6923954e-10 -1.1452765e-10 
    2700  5.40789e-10            0 3.2317864e-15 4.6353666e-10 2.7449474e-09 
    2800 2.162792e-10            0 3.3257851e-16 1.853825e-10 -9.3736587e-10 
    2900 1.7825705e-10            0 4.6263715e-17 1.527918e-10 -3.8873746e-10 
    3000 1.388351e-10            0 1.7565562e-15 1.1900327e-10 1.6981556e-09 
    3100 1.0564511e-10            0 1.9691635e-15 9.0554924e-11 1.7620474e-09 
    3200 6.9453974e-11            0 6.8261993e-16 5.953266e-11 1.0466844e-09 
    3300 4.4068508e-11            0 4.9453934e-17 3.7773056e-11 3.613394e-10 
    3400 2.9650258e-11            0 1.2965659e-16 2.5414637e-11 -3.8885125e-10 
    3500 1.9113938e-11            0 1.4548121e-17 1.638339e-11 -4.3454659e-11 
    3600 1.381732e-11            0 3.4330064e-17 1.1843452e-11 4.9233477e-11 
    3700 9.5355519e-12            0 1.153987e-17 8.1733418e-12 -3.9139581e-11 
    3800 6.8812537e-12            0  3.35778e-17 5.898251e-12 -1.2410778e-10 
    3900 5.4106884e-12            0 2.2344032e-17 4.6377552e-12 1.7326044e-10 
    4000 4.5561571e-12            0 1.5280545e-17 3.9052928e-12 1.3965676e-10 
Loop time of 5.75428 on 1 procs for 2000 steps with 7 atoms

4.5% CPU use with 1 MPI tasks x no OpenMP threads

Minimization stats:
  Stopping criterion = max iterations
  Energy initial, next-to-last, final = 
    1.52891241647844e-13 2.19047577043017e-17 1.52805454618775e-17
  Force two-norm initial, final = 4.6999246e-05 3.1553104e-06
  Force max component initial, final = 2.3251134e-05 1.5643770e-06
  Final line search alpha, max atom move = 0.0000000 0.0000000
  Iterations, force evaluations = 2000 2000

MPI task timing breakdown:
Section |  min time  |  avg time  |  max time  |%varavg| %total
---------------------------------------------------------------
Pair    | 0          | 0          | 0          |   0.0 |  0.00
Bond    | 0.002478   | 0.002478   | 0.002478   |   0.0 |  0.04
Neigh   | 0          | 0          | 0          |   0.0 |  0.00
Comm    | 0.001235   | 0.001235   | 0.001235   |   0.0 |  0.02
Output  | 0.049891   | 0.049891   | 0.049891   |   0.0 |  0.87
Modify  | 1.7331     | 1.7331     | 1.7331     |   0.0 | 30.12
Other   |            | 3.968      |            |       | 68.95

Nlocal:        7.00000 ave           7 max           7 min
Histogram: 1 0 0 0 0 0 0 0 0 0
Nghost:        0.00000 ave           0 max           0 min
Histogram: 1 0 0 0 0 0 0 0 0 0
Neighs:        0.00000 ave           0 max           0 min
Histogram: 1 0 0 0 0 0 0 0 0 0

Total # of neighbors = 0
Ave neighs/atom = 0.0000000
Ave special neighs/atom = 6.0000000
Neighbor list builds = 0
Dangerous builds = 0
Total wall time: 0:00:18
