LAMMPS (29 Oct 2020)
Processor partition = 6
# LAMMPS task file for neb

      dimension   2
     atom_style bond
     boundary   f f p
     bond_style harmonic
     atom_modify	map array sort 0 0.0

     variable  u uloop 20
     read_data  src/polygon/lammps_util/script/test_healty.lj
Reading data file ...
  orthogonal box = (-6.0000000 -6.0000000 -6.0000000) to (6.0000000 6.0000000 6.0000000)
  1 by 1 by 1 MPI processor grid
  reading atoms ...
  7 atoms
  scanning bonds ...
  3 = max bonds/atom
  reading bonds ...
  11 bonds
Finding 1-2 1-3 1-4 neighbors ...
  special bond factors lj:    0.0      0.0      0.0     
  special bond factors coul:  0.0      0.0      0.0     
     4 = max # of 1-2 neighbors
     8 = max # of 1-3 neighbors
    24 = max # of 1-4 neighbors
     6 = max # of special neighbors
  special bonds CPU = 0.000 seconds
  read_data CPU = 0.016 seconds
     timestep  0.1
     fix 1 all neb 1.0 parallel ideal

     thermo 100
     fix 2 all enforce2d
     dump 1 all atom 10 src/polygon/temp/dump.neb.$u
     dump 1 all atom 10 src/polygon/temp/dump.neb.7
      min_style quickmin
     neb 1e-08 0.0 2000 2000 40 final src/polygon/lammps_util/script/prion_neb_pos.lj
WARNING: Using 'neigh_modify every 1 delay 0 check yes' setting during minimization (../min.cpp:187)
Per MPI rank memory allocation (min/avg/max) = 4.840 | 4.840 | 4.840 Mbytes
Step Temp E_pair E_mol TotEng Press 
       0            0            0   0.02275469   0.02275469 0.0064022987 
     100 2.8859118e-07            0 1.9343167e-08 2.6670704e-07 4.8259994e-08 
     200 1.3543582e-09            0 1.4671326e-08 1.5832205e-08 9.182475e-09 
     300 1.9812025e-10            0 1.3946411e-08 1.4116228e-08 1.266464e-08 
     400 2.6362191e-11            0 1.3351788e-08 1.3374384e-08 1.2527152e-08 
     500 1.0629252e-10            0 1.2797292e-08  1.28884e-08 1.2233459e-08 
     600 1.6633098e-10            0 1.224193e-08 1.2384499e-08 1.1923713e-08 
     700 2.0007835e-10            0 1.1715559e-08 1.1887055e-08 1.1625044e-08 
     800 1.8485974e-10            0 1.1212707e-08 1.1371159e-08 1.1319402e-08 
     900 1.8242249e-11            0 1.074855e-08 1.0764186e-08 1.1053719e-08 
    1000 3.8604983e-11            0 1.028213e-08 1.031522e-08 1.0740911e-08 
    1100 1.5127668e-10            0 9.8507454e-09 9.9804111e-09 1.0518165e-08 
    1200 6.7709548e-11            0 9.4346433e-09 9.4926801e-09 1.0215013e-08 
    1300 1.7634484e-10            0 9.0407661e-09 9.1919188e-09 1.0024795e-08 
    1400 4.1413369e-11            0 8.6889097e-09 8.7244069e-09 9.7885896e-09 
    1500 1.1782737e-11            0 8.3402747e-09 8.3503742e-09 9.5623299e-09 
    1600 2.3402558e-11            0 8.0135837e-09 8.033643e-09 9.3501192e-09 
    1700 1.9263029e-11            0 7.6849348e-09 7.7014459e-09 9.1321619e-09 
    1800 1.8317761e-11            0 7.370365e-09 7.3860659e-09 8.9204968e-09 
    1900 3.9173912e-11            0 7.0776908e-09 7.1112685e-09 8.721495e-09 
    2000 6.2142396e-11            0 6.7953715e-09 6.8486364e-09 8.5267758e-09 
Loop time of 0.510535 on 1 procs for 2000 steps with 7 atoms

19.1% CPU use with 1 MPI tasks x no OpenMP threads

Minimization stats:
  Stopping criterion = max iterations
  Energy initial, next-to-last, final = 
    0.0227546902844111 6.79858971527287e-09 6.7953715078475e-09
  Force two-norm initial, final = 1.3683162 9.4797493e-06
  Force max component initial, final = 0.76504032 4.5779723e-06
  Final line search alpha, max atom move = 0.0000000 0.0000000
  Iterations, force evaluations = 2000 2000

MPI task timing breakdown:
Section |  min time  |  avg time  |  max time  |%varavg| %total
---------------------------------------------------------------
Pair    | 0          | 0          | 0          |   0.0 |  0.00
Bond    | 0.001078   | 0.001078   | 0.001078   |   0.0 |  0.21
Neigh   | 0          | 0          | 0          |   0.0 |  0.00
Comm    | 0.000435   | 0.000435   | 0.000435   |   0.0 |  0.09
Output  | 0.23184    | 0.23184    | 0.23184    |   0.0 | 45.41
Modify  | 0.092857   | 0.092857   | 0.092857   |   0.0 | 18.19
Other   |            | 0.1843     |            |       | 36.10

Nlocal:        7.00000 ave           7 max           7 min
Histogram: 1 0 0 0 0 0 0 0 0 0
Nghost:        0.00000 ave           0 max           0 min
Histogram: 1 0 0 0 0 0 0 0 0 0
Neighs:        0.00000 ave           0 max           0 min
Histogram: 1 0 0 0 0 0 0 0 0 0

Total # of neighbors = 0
Ave neighs/atom = 0.0000000
Ave special neighs/atom = 6.0000000
Neighbor list builds = 0
Dangerous builds = 0
WARNING: Using 'neigh_modify every 1 delay 0 check yes' setting during minimization (../min.cpp:187)
Per MPI rank memory allocation (min/avg/max) = 4.840 | 4.840 | 4.840 Mbytes
Step Temp E_pair E_mol TotEng Press 
    2000            0            0 6.7953715e-09 6.7953715e-09 8.5241865e-09 
    2100 4.1124632e-11            0 6.5436066e-09 6.5788563e-09 8.8583533e-09 
    2200 6.8483622e-11            0 6.2927341e-09 6.3514343e-09 8.6700741e-09 
    2300 7.0778776e-11            0 6.0595315e-09 6.1201991e-09 8.4791178e-09 
    2400 4.5070791e-11            0 5.8308678e-09 5.8694999e-09 8.2875264e-09 
    2500 7.2654605e-11            0 5.6056755e-09 5.6679509e-09 8.0927596e-09 
    2600 1.1811213e-11            0 5.4053416e-09 5.4154655e-09 7.9239153e-09 
    2700 1.095456e-11            0 5.1985454e-09 5.207935e-09 7.7440403e-09 
    2800 1.586052e-11            0 5.0113426e-09 5.0249373e-09 7.5791628e-09 
    2900 1.1882616e-11            0 4.8143726e-09 4.8245577e-09 7.4160465e-09 
    3000 1.5455204e-11            0 4.6370949e-09 4.6503422e-09 7.2588331e-09 
    3100 1.2251877e-11            0 4.475048e-09 4.4855496e-09 7.0930399e-09 
    3200 1.5545196e-11            0 4.3180499e-09 4.3313744e-09 6.9469335e-09 
    3300 3.5058898e-11            0 4.1633093e-09 4.1933597e-09 6.8016781e-09 
    3400 2.008851e-11            0 4.0126979e-09 4.0299166e-09 6.6569859e-09 
    3500 3.5059597e-11            0 3.8683971e-09 3.8984481e-09 6.5176754e-09 
    3600 5.2925378e-11            0 3.7283106e-09 3.7736752e-09 6.3722039e-09 
    3700 2.9162136e-11            0 3.595109e-09 3.6201051e-09 6.227426e-09 
    3800 4.398996e-11            0 3.4697173e-09 3.507423e-09 6.1211952e-09 
    3900 4.3238238e-12            0 3.3460349e-09 3.349741e-09 5.9927393e-09 
    4000 2.4932881e-11            0 3.2370289e-09   3.2584e-09 5.8810614e-09 
Loop time of 0.098428 on 1 procs for 2000 steps with 7 atoms

57.7% CPU use with 1 MPI tasks x no OpenMP threads

Minimization stats:
  Stopping criterion = max iterations
  Energy initial, next-to-last, final = 
    6.7953715078475e-09 3.23837977170743e-09 3.23702893228481e-09
  Force two-norm initial, final = 9.1678862e-06 5.9352236e-06
  Force max component initial, final = 4.1169911e-06 3.6548290e-06
  Final line search alpha, max atom move = 0.0000000 0.0000000
  Iterations, force evaluations = 2000 2000

MPI task timing breakdown:
Section |  min time  |  avg time  |  max time  |%varavg| %total
---------------------------------------------------------------
Pair    | 0          | 0          | 0          |   0.0 |  0.00
Bond    | 0.000695   | 0.000695   | 0.000695   |   0.0 |  0.71
Neigh   | 0          | 0          | 0          |   0.0 |  0.00
Comm    | 0.000252   | 0.000252   | 0.000252   |   0.0 |  0.26
Output  | 0.026742   | 0.026742   | 0.026742   |   0.0 | 27.17
Modify  | 0.023984   | 0.023984   | 0.023984   |   0.0 | 24.37
Other   |            | 0.04676    |            |       | 47.50

Nlocal:        7.00000 ave           7 max           7 min
Histogram: 1 0 0 0 0 0 0 0 0 0
Nghost:        0.00000 ave           0 max           0 min
Histogram: 1 0 0 0 0 0 0 0 0 0
Neighs:        0.00000 ave           0 max           0 min
Histogram: 1 0 0 0 0 0 0 0 0 0

Total # of neighbors = 0
Ave neighs/atom = 0.0000000
Ave special neighs/atom = 6.0000000
Neighbor list builds = 0
Dangerous builds = 0
Total wall time: 0:00:00
