LAMMPS (29 Oct 2020)
Processor partition = 77
# LAMMPS task file for neb

      dimension   2
     atom_style bond
     boundary   f f p
     bond_style harmonic
     atom_modify	map array sort 0 0.0

     variable  u uloop 100
     read_data  temp/h_-6779599749597012937_-7482915513354146445_0.txt
Reading data file ...
  orthogonal box = (-6.0000000 -6.0000000 -6.0000000) to (6.0000000 6.0000000 6.0000000)
  1 by 1 by 1 MPI processor grid
  reading atoms ...
  7 atoms
  scanning bonds ...
  3 = max bonds/atom
  reading bonds ...
  11 bonds
Finding 1-2 1-3 1-4 neighbors ...
  special bond factors lj:    0.0      0.0      0.0     
  special bond factors coul:  0.0      0.0      0.0     
     4 = max # of 1-2 neighbors
     9 = max # of 1-3 neighbors
    28 = max # of 1-4 neighbors
     6 = max # of special neighbors
  special bonds CPU = 0.000 seconds
  read_data CPU = 0.061 seconds
     timestep  0.1
     fix 1 all neb 1.0 parallel ideal

     thermo 100
     fix 2 all enforce2d
     dump 1 all atom 10 temp/0dump.neb.$u
     dump 1 all atom 10 temp/0dump.neb.78
      min_style quickmin
     neb 1e-08 0.0 2000 2000 40 final lammps_util/script/prion_neb_pos.lj0
WARNING: Using 'neigh_modify every 1 delay 0 check yes' setting during minimization (../min.cpp:187)
Per MPI rank memory allocation (min/avg/max) = 4.840 | 4.840 | 4.840 Mbytes
Step Temp E_pair E_mol TotEng Press 
       0            0            0 0.00047678116 0.00047678116 0.0013308126 
     100 1.4908389e-07            0 1.346706e-07 2.6245679e-07 -2.9112304e-07 
     200 1.1654277e-08            0 1.3566885e-08 2.3556265e-08 2.9473651e-09 
     300 1.9277159e-10            0 2.491599e-09 2.6568318e-09 1.4431261e-08 
     400 4.4872472e-10            0 5.029799e-10 8.8760109e-10 8.9608159e-09 
     500 2.327303e-10            0 9.7318621e-11 2.9680174e-10 4.1811359e-09 
     600 3.1100932e-10            0 1.8459852e-11 2.8503927e-10 2.2453772e-09 
     700 2.0542747e-10            0 3.4875668e-12 1.7956826e-10 -2.5338682e-10 
     800 2.2336036e-11            0 8.2928421e-13 1.9974458e-11 -3.0606963e-09 
     900 5.1660034e-12            0 2.0207705e-13  4.63008e-12 -1.6265738e-09 
    1000 1.0021483e-13            0 5.1112019e-14 1.3701044e-13 -1.4259004e-09 
    1100 7.8112293e-11            0 1.2575869e-14 6.696597e-11 6.4963128e-10 
    1200 6.2481253e-11            0 3.3386154e-15 5.3558698e-11 5.4077272e-10 
    1300 5.4549598e-11            0 1.0202003e-15 4.6757819e-11 5.3192035e-10 
    1400 5.150991e-11            0 4.2595521e-16 4.4151777e-11 6.1173001e-10 
    1500 3.6647111e-11            0 3.2588583e-16 3.1412135e-11 7.1078634e-10 
    1600 2.0775895e-11            0 1.697923e-16 1.780808e-11 -3.8594049e-10 
    1700 1.7618253e-11            0 7.041295e-17 1.510143e-11 3.1350211e-10 
    1800 1.1684723e-11            0 3.3993042e-17 1.0015511e-11 8.2277282e-11 
    1900 4.533599e-12            0 2.6273049e-17 3.8859683e-12 8.4594275e-11 
    2000 8.0857737e-12            0 9.1429496e-17 6.9307546e-12 4.3883699e-10 
Loop time of 12.3176 on 1 procs for 2000 steps with 7 atoms

3.8% CPU use with 1 MPI tasks x no OpenMP threads

Minimization stats:
  Stopping criterion = max iterations
  Energy initial, next-to-last, final = 
    0.000476781155024837 6.76774866284102e-17 9.14294960596439e-17
  Force two-norm initial, final = 0.2130063 3.3453116e-06
  Force max component initial, final = 0.09406786 2.0272061e-06
  Final line search alpha, max atom move = 0.0000000 0.0000000
  Iterations, force evaluations = 2000 2000

MPI task timing breakdown:
Section |  min time  |  avg time  |  max time  |%varavg| %total
---------------------------------------------------------------
Pair    | 0          | 0          | 0          |   0.0 |  0.00
Bond    | 0.003141   | 0.003141   | 0.003141   |   0.0 |  0.03
Neigh   | 0          | 0          | 0          |   0.0 |  0.00
Comm    | 0.001317   | 0.001317   | 0.001317   |   0.0 |  0.01
Output  | 0.19991    | 0.19991    | 0.19991    |   0.0 |  1.62
Modify  | 3.6141     | 3.6141     | 3.6141     |   0.0 | 29.34
Other   |            | 8.499      |            |       | 69.00

Nlocal:        7.00000 ave           7 max           7 min
Histogram: 1 0 0 0 0 0 0 0 0 0
Nghost:        0.00000 ave           0 max           0 min
Histogram: 1 0 0 0 0 0 0 0 0 0
Neighs:        0.00000 ave           0 max           0 min
Histogram: 1 0 0 0 0 0 0 0 0 0

Total # of neighbors = 0
Ave neighs/atom = 0.0000000
Ave special neighs/atom = 6.0000000
Neighbor list builds = 0
Dangerous builds = 0
WARNING: Using 'neigh_modify every 1 delay 0 check yes' setting during minimization (../min.cpp:187)
Per MPI rank memory allocation (min/avg/max) = 4.840 | 4.840 | 4.840 Mbytes
Step Temp E_pair E_mol TotEng Press 
    2000            0            0 9.1429496e-17 9.1429496e-17 4.3850009e-10 
    2100 1.5322212e-11            0 1.6989568e-17 1.3133342e-11 -1.600836e-10 
    2200 1.3242634e-11            0 2.0143893e-17 1.1350849e-11 -1.2820673e-10 
    2300 6.7740191e-12            0 1.3183377e-17 5.8063153e-12 -9.1626072e-11 
    2400 9.5199179e-13            0 6.7060548e-18 8.1599967e-13 -5.6540127e-11 
    2500 3.760212e-13            0 2.957713e-18 3.2230684e-13 -3.2680686e-11 
    2600 4.4858317e-13            0 1.2203344e-18 3.8450108e-13 -2.2087736e-11 
    2700 4.8001111e-14            0 4.5583738e-19 4.1144265e-14 -1.1161416e-11 
    2800 1.3599249e-14            0 1.6905266e-19 1.1656668e-14 -6.9912622e-12 
    2900 8.6612894e-15            0 6.0677792e-20 7.424023e-15 -3.6768256e-12 
    3000 1.7715045e-15            0 2.1138308e-20 1.5184535e-15 -1.98158e-12 
    3100 4.7290646e-16            0 6.4856512e-21 4.0535488e-16 -8.8370552e-13 
    3200 1.7551574e-17            0 1.5815861e-21 1.5045788e-17 -2.0865403e-13 
    3300 3.6073538e-17            0 2.8722286e-22 3.0920462e-17 2.0208872e-13 
    3400 1.2398399e-16            0 1.4029572e-22 1.0627213e-16 4.3211053e-13 
    3500 1.6598663e-16            0 2.5423275e-22 1.4227451e-16 5.4584691e-13 
    3600 1.8015371e-16            0 3.6055401e-22 1.5441783e-16 5.8481883e-13 
    3700 1.6744371e-16            0 4.0465936e-22 1.4352358e-16 5.7971833e-13 
    3800 1.4080799e-16            0 3.9553131e-22 1.2069296e-16 5.4878006e-13 
    3900 1.1075658e-16            0 3.5458502e-22 9.4934563e-17 5.0446846e-13 
    4000 8.5028164e-17            0 2.9971261e-22 7.2881583e-17 4.5401685e-13 
Loop time of 5.75525 on 1 procs for 2000 steps with 7 atoms

6.0% CPU use with 1 MPI tasks x no OpenMP threads

Minimization stats:
  Stopping criterion = max iterations
  Energy initial, next-to-last, final = 
    9.14294960596439e-17 2.99911308774436e-22 2.99712613977873e-22
  Force two-norm initial, final = 1.6448525e-06 1.6433949e-08
  Force max component initial, final = 1.0068194e-06 9.8675156e-09
  Final line search alpha, max atom move = 0.0000000 0.0000000
  Iterations, force evaluations = 2000 2000

MPI task timing breakdown:
Section |  min time  |  avg time  |  max time  |%varavg| %total
---------------------------------------------------------------
Pair    | 0          | 0          | 0          |   0.0 |  0.00
Bond    | 0.002668   | 0.002668   | 0.002668   |   0.0 |  0.05
Neigh   | 0          | 0          | 0          |   0.0 |  0.00
Comm    | 0.001099   | 0.001099   | 0.001099   |   0.0 |  0.02
Output  | 0.049843   | 0.049843   | 0.049843   |   0.0 |  0.87
Modify  | 1.7291     | 1.7291     | 1.7291     |   0.0 | 30.04
Other   |            | 3.973      |            |       | 69.02

Nlocal:        7.00000 ave           7 max           7 min
Histogram: 1 0 0 0 0 0 0 0 0 0
Nghost:        0.00000 ave           0 max           0 min
Histogram: 1 0 0 0 0 0 0 0 0 0
Neighs:        0.00000 ave           0 max           0 min
Histogram: 1 0 0 0 0 0 0 0 0 0

Total # of neighbors = 0
Ave neighs/atom = 0.0000000
Ave special neighs/atom = 6.0000000
Neighbor list builds = 0
Dangerous builds = 0
Total wall time: 0:00:18
