LAMMPS (29 Oct 2020)
Processor partition = 11
# LAMMPS task file for neb

      dimension   2
     atom_style bond
     boundary   f f p
     bond_style harmonic
     atom_modify	map array sort 0 0.0

     variable  u uloop 100
     read_data  temp/h_-6779599749597012937_-7482915513354146445_0.txt
Reading data file ...
  orthogonal box = (-6.0000000 -6.0000000 -6.0000000) to (6.0000000 6.0000000 6.0000000)
  1 by 1 by 1 MPI processor grid
  reading atoms ...
  7 atoms
  scanning bonds ...
  3 = max bonds/atom
  reading bonds ...
  11 bonds
Finding 1-2 1-3 1-4 neighbors ...
  special bond factors lj:    0.0      0.0      0.0     
  special bond factors coul:  0.0      0.0      0.0     
     4 = max # of 1-2 neighbors
     9 = max # of 1-3 neighbors
    28 = max # of 1-4 neighbors
     6 = max # of special neighbors
  special bonds CPU = 0.000 seconds
  read_data CPU = 0.071 seconds
     timestep  0.1
     fix 1 all neb 1.0 parallel ideal

     thermo 100
     fix 2 all enforce2d
     dump 1 all atom 10 temp/0dump.neb.$u
     dump 1 all atom 10 temp/0dump.neb.12
      min_style quickmin
     neb 1e-08 0.0 2000 2000 40 final lammps_util/script/prion_neb_pos.lj0
WARNING: Using 'neigh_modify every 1 delay 0 check yes' setting during minimization (../min.cpp:187)
Per MPI rank memory allocation (min/avg/max) = 4.840 | 4.840 | 4.840 Mbytes
Step Temp E_pair E_mol TotEng Press 
       0            0            0  0.014731905  0.014731905 0.0070603296 
     100 3.0139316e-07            0  2.21147e-07  4.79484e-07 5.0683727e-07 
     200 8.3412492e-09            0 4.4608359e-09 1.1610478e-08 6.201122e-08 
     300 3.863386e-10            0 4.1738851e-10 7.4853588e-10 5.2602586e-09 
     400 3.8198903e-09            0 1.6833656e-10 3.4425282e-09 -3.3281541e-10 
     500 6.0502525e-09            0 7.6396414e-11 5.2623271e-09 1.3770088e-10 
     600 9.1266721e-09            0 3.4776946e-11 7.8576388e-09 1.8312635e-09 
     700 9.0662105e-09            0 1.5834383e-11 7.786872e-09 -5.3540785e-09 
     800 7.665705e-10            0 8.1021678e-12 6.651626e-10 -1.8100817e-08 
     900 7.8605958e-10            0 4.122815e-12 6.7788817e-10 -1.6168433e-08 
    1000 4.8252238e-10            0 2.0328551e-12 4.1562346e-10 -9.3590546e-09 
    1100 2.6309973e-09            0 9.5992096e-13 2.2561005e-09 4.6472166e-09 
    1200 1.9565124e-09            0 4.4789267e-13 1.6774585e-09 3.0228462e-09 
    1300 1.6648832e-09            0 2.038109e-13 1.4272466e-09 3.2936334e-09 
    1400 1.5656702e-09            0 9.4676638e-14 1.3420977e-09 5.0557687e-09 
    1500 1.1043366e-09            0 8.293508e-14 9.4665715e-10 1.002953e-08 
    1600 6.2671804e-10            0 2.5839308e-14 5.3721273e-10 -4.385614e-09 
    1700 5.3698717e-10            0 6.7011001e-15 4.6028141e-10 2.0183564e-09 
    1800 3.5017644e-10            0 3.0705193e-15 3.0015431e-10 1.5464192e-09 
    1900 1.3918115e-10            0 1.7374314e-15 1.1929987e-10 -3.9937474e-10 
    2000 2.3902832e-10            0 2.0049897e-14 2.0490146e-10 6.3959617e-09 
Loop time of 12.3165 on 1 procs for 2000 steps with 7 atoms

4.0% CPU use with 1 MPI tasks x no OpenMP threads

Minimization stats:
  Stopping criterion = max iterations
  Energy initial, next-to-last, final = 
    0.0147319054839519 1.57967978632048e-14 2.00498969262229e-14
  Force two-norm initial, final = 1.2206052 1.8841691e-05
  Force max component initial, final = 0.59155094 8.9235782e-06
  Final line search alpha, max atom move = 0.0000000 0.0000000
  Iterations, force evaluations = 2000 2000

MPI task timing breakdown:
Section |  min time  |  avg time  |  max time  |%varavg| %total
---------------------------------------------------------------
Pair    | 0          | 0          | 0          |   0.0 |  0.00
Bond    | 0.002834   | 0.002834   | 0.002834   |   0.0 |  0.02
Neigh   | 0          | 0          | 0          |   0.0 |  0.00
Comm    | 0.001503   | 0.001503   | 0.001503   |   0.0 |  0.01
Output  | 0.19476    | 0.19476    | 0.19476    |   0.0 |  1.58
Modify  | 3.8343     | 3.8343     | 3.8343     |   0.0 | 31.13
Other   |            | 8.283      |            |       | 67.25

Nlocal:        7.00000 ave           7 max           7 min
Histogram: 1 0 0 0 0 0 0 0 0 0
Nghost:        0.00000 ave           0 max           0 min
Histogram: 1 0 0 0 0 0 0 0 0 0
Neighs:        0.00000 ave           0 max           0 min
Histogram: 1 0 0 0 0 0 0 0 0 0

Total # of neighbors = 0
Ave neighs/atom = 0.0000000
Ave special neighs/atom = 6.0000000
Neighbor list builds = 0
Dangerous builds = 0
WARNING: Using 'neigh_modify every 1 delay 0 check yes' setting during minimization (../min.cpp:187)
Per MPI rank memory allocation (min/avg/max) = 4.840 | 4.840 | 4.840 Mbytes
Step Temp E_pair E_mol TotEng Press 
    2000            0            0 2.0049897e-14 2.0049897e-14 6.3860022e-09 
    2100 1.4610255e-09            0 1.1256991e-14 1.2523188e-09 -5.6426916e-09 
    2200 7.8028768e-10            0 2.5795496e-15 6.6882059e-10 2.6132862e-09 
    2300 4.396217e-10            0 6.9413152e-15 3.7682554e-10 3.1119648e-09 
    2400 3.1265665e-10            0 3.9114808e-16 2.679918e-10 -7.9163757e-10 
    2500 2.8467232e-10            0 1.4174806e-16 2.4400499e-10 -5.3973209e-10 
    2600 1.6063716e-10            0 2.8102981e-15 1.376918e-10 -2.5034943e-09 
    2700 1.4719144e-10            0 1.3830689e-16 1.2616423e-10 -6.1429912e-10 
    2800 6.2438207e-11            0 3.7853782e-17 5.3518501e-11 -6.5690804e-11 
    2900 4.9553554e-11            0 1.7770731e-16 4.2474653e-11 5.2977061e-10 
    3000 4.0228121e-11            0 1.5755998e-16 3.4481404e-11 -5.2942396e-10 
    3100 3.2890351e-11            0 1.2455389e-17 2.8191742e-11 1.5991624e-10 
    3200 2.3263465e-11            0 1.1749155e-17 1.9940125e-11 1.0898963e-10 
    3300 1.5312445e-11            0 1.2218131e-16 1.3125075e-11 6.2562864e-10 
    3400 1.0331007e-11            0 4.9756924e-17 8.8551982e-12 -2.9471381e-10 
    3500 6.4285913e-12            0 2.2687447e-17 5.5102438e-12 2.0221901e-10 
    3600 4.0619893e-12            0 2.4069506e-18 3.4817075e-12 5.0359994e-11 
    3700 2.343609e-12            0 1.0598012e-17 2.0088183e-12 -4.7394352e-11 
    3800 1.5337734e-12            0 1.7274341e-17 1.3146802e-12 -9.5501088e-11 
    3900 1.1285034e-12            0 3.0174576e-17 9.6731878e-13 -1.5187661e-10 
    4000 9.0473745e-13            0 2.5079803e-17 7.7551433e-13 -1.9903182e-10 
Loop time of 5.75764 on 1 procs for 2000 steps with 7 atoms

6.4% CPU use with 1 MPI tasks x no OpenMP threads

Minimization stats:
  Stopping criterion = max iterations
  Energy initial, next-to-last, final = 
    2.00498969262229e-14 3.99656782687367e-17 2.50798028696993e-17
  Force two-norm initial, final = 2.4254806e-05 2.0780537e-06
  Force max component initial, final = 1.1526391e-05 9.9781360e-07
  Final line search alpha, max atom move = 0.0000000 0.0000000
  Iterations, force evaluations = 2000 2000

MPI task timing breakdown:
Section |  min time  |  avg time  |  max time  |%varavg| %total
---------------------------------------------------------------
Pair    | 0          | 0          | 0          |   0.0 |  0.00
Bond    | 0.002376   | 0.002376   | 0.002376   |   0.0 |  0.04
Neigh   | 0          | 0          | 0          |   0.0 |  0.00
Comm    | 0.001275   | 0.001275   | 0.001275   |   0.0 |  0.02
Output  | 0.051287   | 0.051287   | 0.051287   |   0.0 |  0.89
Modify  | 1.8427     | 1.8427     | 1.8427     |   0.0 | 32.00
Other   |            | 3.86       |            |       | 67.04

Nlocal:        7.00000 ave           7 max           7 min
Histogram: 1 0 0 0 0 0 0 0 0 0
Nghost:        0.00000 ave           0 max           0 min
Histogram: 1 0 0 0 0 0 0 0 0 0
Neighs:        0.00000 ave           0 max           0 min
Histogram: 1 0 0 0 0 0 0 0 0 0

Total # of neighbors = 0
Ave neighs/atom = 0.0000000
Ave special neighs/atom = 6.0000000
Neighbor list builds = 0
Dangerous builds = 0
Total wall time: 0:00:18
