LAMMPS (29 Oct 2020)
Processor partition = 14
# LAMMPS task file for neb

      dimension   2
     atom_style bond
     boundary   f f p
     bond_style harmonic
     atom_modify	map array sort 0 0.0

     variable  u uloop 100
     read_data  temp/h_-6779599749597012937_-7482915513354146445_0.txt
Reading data file ...
  orthogonal box = (-6.0000000 -6.0000000 -6.0000000) to (6.0000000 6.0000000 6.0000000)
  1 by 1 by 1 MPI processor grid
  reading atoms ...
  7 atoms
  scanning bonds ...
  3 = max bonds/atom
  reading bonds ...
  11 bonds
Finding 1-2 1-3 1-4 neighbors ...
  special bond factors lj:    0.0      0.0      0.0     
  special bond factors coul:  0.0      0.0      0.0     
     4 = max # of 1-2 neighbors
     9 = max # of 1-3 neighbors
    28 = max # of 1-4 neighbors
     6 = max # of special neighbors
  special bonds CPU = 0.000 seconds
  read_data CPU = 0.079 seconds
     timestep  0.1
     fix 1 all neb 1.0 parallel ideal

     thermo 100
     fix 2 all enforce2d
     dump 1 all atom 10 temp/0dump.neb.$u
     dump 1 all atom 10 temp/0dump.neb.15
      min_style quickmin
     neb 1e-08 0.0 2000 2000 40 final lammps_util/script/prion_neb_pos.lj0
WARNING: Using 'neigh_modify every 1 delay 0 check yes' setting during minimization (../min.cpp:187)
Per MPI rank memory allocation (min/avg/max) = 4.840 | 4.840 | 4.840 Mbytes
Step Temp E_pair E_mol TotEng Press 
       0            0            0  0.022310147  0.022310147 0.0084812661 
     100 4.9360728e-07            0 3.9199952e-07 8.1509148e-07 6.290632e-07 
     200 1.750109e-08            0 1.5074321e-08 3.0075255e-08 6.9977425e-08 
     300 6.2467411e-10            0 3.8574097e-09 4.3928446e-09 -2.8118035e-09 
     400 6.6992809e-09            0 1.7266739e-09 7.4689147e-09 -6.7105102e-09 
     500 9.9217949e-09            0 7.7903379e-10 9.2834294e-09 -4.3052905e-09 
     600 1.4866835e-08            0 3.4985054e-10 1.3092852e-08 -3.7501255e-10 
     700 1.4679198e-08            0 1.5688594e-10 1.2739056e-08 -9.3236603e-09 
     800 2.3110434e-09            0 7.8154062e-11 2.0590484e-09 -2.0115995e-08 
     900 2.0914601e-09            0 3.9091365e-11 1.8317715e-09 -1.8161504e-08 
    1000 2.533911e-09            0 1.9380879e-11 2.1913046e-09 -2.777155e-09 
    1100 4.909961e-09            0 9.400026e-12 4.217938e-09 7.3938133e-09 
    1200 3.4507681e-09            0 4.4558106e-12 2.9622571e-09 4.5006954e-09 
    1300 2.8062515e-09            0 2.0703951e-12 2.4074289e-09 4.523208e-09 
    1400 2.5573088e-09            0 9.4964452e-13 2.1929286e-09 6.7789485e-09 
    1500 1.7018114e-09            0 4.9766829e-13 1.4591931e-09 1.315442e-08 
    1600 1.0133789e-09            0 2.0205729e-13 8.6881256e-10 -6.1078223e-09 
    1700 8.8607921e-10            0  7.93991e-14 7.5957586e-10 2.7400464e-09 
    1800 5.5691986e-10            0 3.3624272e-14 4.773935e-10 1.9697986e-09 
    1900 2.3659517e-10            0 1.4464101e-14 2.0281033e-10 -5.2248838e-10 
    2000 3.7339301e-10            0 3.4834834e-14 3.2008598e-10 7.9385502e-09 
Loop time of 12.3163 on 1 procs for 2000 steps with 7 atoms

2.8% CPU use with 1 MPI tasks x no OpenMP threads

Minimization stats:
  Stopping criterion = max iterations
  Energy initial, next-to-last, final = 
    0.0223101470955573 2.81119810791046e-14 3.48348338212228e-14
  Force two-norm initial, final = 1.5123914 2.4641223e-05
  Force max component initial, final = 0.74784579 1.1896642e-05
  Final line search alpha, max atom move = 0.0000000 0.0000000
  Iterations, force evaluations = 2000 2000

MPI task timing breakdown:
Section |  min time  |  avg time  |  max time  |%varavg| %total
---------------------------------------------------------------
Pair    | 0          | 0          | 0          |   0.0 |  0.00
Bond    | 0.003029   | 0.003029   | 0.003029   |   0.0 |  0.02
Neigh   | 0          | 0          | 0          |   0.0 |  0.00
Comm    | 0.001679   | 0.001679   | 0.001679   |   0.0 |  0.01
Output  | 0.19516    | 0.19516    | 0.19516    |   0.0 |  1.58
Modify  | 3.5872     | 3.5872     | 3.5872     |   0.0 | 29.13
Other   |            | 8.529      |            |       | 69.25

Nlocal:        7.00000 ave           7 max           7 min
Histogram: 1 0 0 0 0 0 0 0 0 0
Nghost:        0.00000 ave           0 max           0 min
Histogram: 1 0 0 0 0 0 0 0 0 0
Neighs:        0.00000 ave           0 max           0 min
Histogram: 1 0 0 0 0 0 0 0 0 0

Total # of neighbors = 0
Ave neighs/atom = 0.0000000
Ave special neighs/atom = 6.0000000
Neighbor list builds = 0
Dangerous builds = 0
WARNING: Using 'neigh_modify every 1 delay 0 check yes' setting during minimization (../min.cpp:187)
Per MPI rank memory allocation (min/avg/max) = 4.840 | 4.840 | 4.840 Mbytes
Step Temp E_pair E_mol TotEng Press 
    2000            0            0 3.4834834e-14 3.4834834e-14 7.9229922e-09 
    2100  2.71609e-09            0 1.449492e-14 2.3280916e-09 -3.0669846e-09 
    2200 1.3035544e-09            0 1.4707825e-15 1.1173338e-09 4.7183762e-10 
    2300 6.9384064e-10            0 1.3095933e-15 5.9472186e-10 -1.6622585e-09 
    2400 5.0134097e-10            0 7.3173262e-16 4.2972157e-10 1.4290808e-09 
    2500 4.6108516e-10            0 1.3329269e-15 3.9521718e-10 1.9771486e-09 
    2600 2.6050114e-10            0 3.954868e-15 2.2329064e-10 -2.5398113e-09 
    2700 2.3813833e-10            0 8.6290474e-15 2.041272e-10 3.8182043e-09 
    2800 9.5670514e-11            0 9.1477002e-17 8.2003389e-11 -5.1026527e-10 
    2900 7.4297461e-11            0 6.0661443e-16 6.3684144e-11 -6.4341953e-10 
    3000 5.9757375e-11            0 1.0586264e-16 5.1220713e-11 4.9793652e-10 
    3100 5.1153425e-11            0 1.0824997e-16 4.3845901e-11 -4.4157043e-10 
    3200 3.5993847e-11            0 4.3488746e-17 3.0851912e-11 3.4753119e-10 
    3300 2.3681172e-11            0 3.3997758e-17 2.0298182e-11 8.5263569e-11 
    3400 1.5900823e-11            0 2.6690929e-17 1.3629304e-11 8.6608118e-11 
    3500 1.0211128e-11            0 1.1251703e-17 8.7524063e-12 6.6602746e-11 
    3600 7.1378645e-12            0 7.3686859e-18 6.118177e-12 -2.0519846e-11 
    3700 5.0059221e-12            0 1.2392592e-17 4.2908028e-12 1.9371369e-11 
    3800 3.5326392e-12            0 1.4091365e-17 3.0279905e-12 1.8221735e-10 
    3900 2.684124e-12            0 5.1630469e-18 2.3006829e-12 -7.5344787e-11 
    4000 2.1499879e-12            0 3.5484084e-18 1.8428503e-12 -8.5101427e-11 
Loop time of 5.75194 on 1 procs for 2000 steps with 7 atoms

4.4% CPU use with 1 MPI tasks x no OpenMP threads

Minimization stats:
  Stopping criterion = max iterations
  Energy initial, next-to-last, final = 
    3.48348338212228e-14 4.27408842413651e-18 3.54840836396574e-18
  Force two-norm initial, final = 3.1532889e-05 2.2511336e-06
  Force max component initial, final = 1.5261047e-05 1.0946663e-06
  Final line search alpha, max atom move = 0.0000000 0.0000000
  Iterations, force evaluations = 2000 2000

MPI task timing breakdown:
Section |  min time  |  avg time  |  max time  |%varavg| %total
---------------------------------------------------------------
Pair    | 0          | 0          | 0          |   0.0 |  0.00
Bond    | 0.002545   | 0.002545   | 0.002545   |   0.0 |  0.04
Neigh   | 0          | 0          | 0          |   0.0 |  0.00
Comm    | 0.001387   | 0.001387   | 0.001387   |   0.0 |  0.02
Output  | 0.049703   | 0.049703   | 0.049703   |   0.0 |  0.86
Modify  | 1.7249     | 1.7249     | 1.7249     |   0.0 | 29.99
Other   |            | 3.973      |            |       | 69.08

Nlocal:        7.00000 ave           7 max           7 min
Histogram: 1 0 0 0 0 0 0 0 0 0
Nghost:        0.00000 ave           0 max           0 min
Histogram: 1 0 0 0 0 0 0 0 0 0
Neighs:        0.00000 ave           0 max           0 min
Histogram: 1 0 0 0 0 0 0 0 0 0

Total # of neighbors = 0
Ave neighs/atom = 0.0000000
Ave special neighs/atom = 6.0000000
Neighbor list builds = 0
Dangerous builds = 0
Total wall time: 0:00:18
