LAMMPS (29 Oct 2020)
Processor partition = 58
# LAMMPS task file for neb

      dimension   2
     atom_style bond
     boundary   f f p
     bond_style harmonic
     atom_modify	map array sort 0 0.0

     variable  u uloop 100
     read_data  temp/h_-6779599749597012937_-7482915513354146445_0.txt
Reading data file ...
  orthogonal box = (-6.0000000 -6.0000000 -6.0000000) to (6.0000000 6.0000000 6.0000000)
  1 by 1 by 1 MPI processor grid
  reading atoms ...
  7 atoms
  scanning bonds ...
  3 = max bonds/atom
  reading bonds ...
  11 bonds
Finding 1-2 1-3 1-4 neighbors ...
  special bond factors lj:    0.0      0.0      0.0     
  special bond factors coul:  0.0      0.0      0.0     
     4 = max # of 1-2 neighbors
     9 = max # of 1-3 neighbors
    28 = max # of 1-4 neighbors
     6 = max # of special neighbors
  special bonds CPU = 0.000 seconds
  read_data CPU = 0.029 seconds
     timestep  0.1
     fix 1 all neb 1.0 parallel ideal

     thermo 100
     fix 2 all enforce2d
     dump 1 all atom 10 temp/0dump.neb.$u
     dump 1 all atom 10 temp/0dump.neb.59
      min_style quickmin
     neb 1e-08 0.0 2000 2000 40 final lammps_util/script/prion_neb_pos.lj0
WARNING: Using 'neigh_modify every 1 delay 0 check yes' setting during minimization (../min.cpp:187)
Per MPI rank memory allocation (min/avg/max) = 4.840 | 4.840 | 4.840 Mbytes
Step Temp E_pair E_mol TotEng Press 
       0            0            0  0.041077557  0.041077557  0.010982087 
     100 9.2992428e-07            0 6.2276777e-06 7.0247556e-06 1.2639892e-06 
     200 8.707958e-07            0 4.1147809e-06 4.8611773e-06 8.1538111e-07 
     300 8.0738878e-08            0 2.1879701e-06 2.2571749e-06 6.2789946e-07 
     400 3.6444462e-07            0 8.6451345e-07 1.1768945e-06 4.5158784e-07 
     500 1.3599092e-07            0 2.5326365e-07 3.698273e-07 2.5168439e-07 
     600 6.2277655e-08            0 6.1404425e-08 1.1478527e-07 1.2556027e-07 
     700 4.4241329e-08            0 1.3584509e-08 5.1505648e-08 5.4095635e-08 
     800 1.5926981e-08            0 3.5504675e-09 1.7202165e-08 2.7619536e-08 
     900 8.6295586e-09            0 9.3023475e-10 8.3269993e-09 6.8880563e-09 
    1000 1.168732e-08            0 2.4336399e-10 1.0261067e-08 1.6385337e-08 
    1100 1.2136706e-08            0 6.1215369e-11 1.0464106e-08 1.6571633e-08 
    1200 8.2947849e-09            0 1.5112416e-11 7.124928e-09 1.1447452e-08 
    1300 6.5350661e-09            0 3.7210105e-12 5.6052062e-09 9.6757964e-09 
    1400 5.6809111e-09            0  9.46924e-13 4.8702993e-09 1.0003284e-08 
    1500 3.409543e-09            0 2.7906567e-13 2.9227445e-09 9.7279527e-09 
    1600 2.3402945e-09            0 9.692244e-14 2.0060636e-09 -5.8353087e-09 
    1700 2.0239482e-09            0 3.3351704e-14 1.7348461e-09 5.1246074e-09 
    1800 1.2185708e-09            0 1.291172e-14 1.0445022e-09 9.322303e-10 
    1900 5.8882172e-10            0 7.9281793e-15 5.0471226e-10 1.5943089e-09 
    2000 7.5374567e-10            0 1.9832347e-14 6.4608755e-10 6.2117506e-09 
Loop time of 12.3194 on 1 procs for 2000 steps with 7 atoms

3.8% CPU use with 1 MPI tasks x no OpenMP threads

Minimization stats:
  Stopping criterion = max iterations
  Energy initial, next-to-last, final = 
    0.0410775565229511 1.51863607243841e-14 1.98323471650166e-14
  Force two-norm initial, final = 2.0615913 3.9496214e-05
  Force max component initial, final = 1.0099393 2.2859355e-05
  Final line search alpha, max atom move = 0.0000000 0.0000000
  Iterations, force evaluations = 2000 2000

MPI task timing breakdown:
Section |  min time  |  avg time  |  max time  |%varavg| %total
---------------------------------------------------------------
Pair    | 0          | 0          | 0          |   0.0 |  0.00
Bond    | 0.002979   | 0.002979   | 0.002979   |   0.0 |  0.02
Neigh   | 2e-06      | 2e-06      | 2e-06      |   0.0 |  0.00
Comm    | 0.001486   | 0.001486   | 0.001486   |   0.0 |  0.01
Output  | 0.19429    | 0.19429    | 0.19429    |   0.0 |  1.58
Modify  | 3.9253     | 3.9253     | 3.9253     |   0.0 | 31.86
Other   |            | 8.195      |            |       | 66.52

Nlocal:        7.00000 ave           7 max           7 min
Histogram: 1 0 0 0 0 0 0 0 0 0
Nghost:        0.00000 ave           0 max           0 min
Histogram: 1 0 0 0 0 0 0 0 0 0
Neighs:        0.00000 ave           0 max           0 min
Histogram: 1 0 0 0 0 0 0 0 0 0

Total # of neighbors = 0
Ave neighs/atom = 0.0000000
Ave special neighs/atom = 6.0000000
Neighbor list builds = 1
Dangerous builds = 0
WARNING: Using 'neigh_modify every 1 delay 0 check yes' setting during minimization (../min.cpp:187)
Per MPI rank memory allocation (min/avg/max) = 4.840 | 4.840 | 4.840 Mbytes
Step Temp E_pair E_mol TotEng Press 
    2000            0            0 1.9832347e-14 1.9832347e-14 6.1803445e-09 
    2100 1.6955886e-09            0 4.0098737e-15 1.4533657e-09 -2.4228513e-09 
    2200 1.4630109e-09            0 4.6966116e-15 1.254014e-09 -1.9321758e-09 
    2300 7.4745946e-10            0 3.0784117e-15 6.4068262e-10 -1.3864904e-09 
    2400 1.0488909e-10            0 1.5682572e-15 8.9906501e-11 -8.6405519e-10 
    2500 4.1559319e-11            0 6.9345925e-16 3.5622967e-11 -5.0135569e-10 
    2600 4.9562275e-11            0 2.8707227e-16 4.2482237e-11 -3.4144385e-10 
    2700 5.3091561e-12            0 1.0720926e-16 4.5508124e-12 -1.719744e-10 
    2800 1.502518e-12            0 3.9795602e-17 1.2879124e-12 -1.0772643e-10 
    2900 9.5871195e-13            0 1.4300102e-17 8.217674e-13 -5.7136889e-11 
    3000 1.9685955e-13            0 4.9856857e-18 1.6874175e-13 -3.1068078e-11 
    3100 5.2459855e-14            0 1.529415e-18 4.4967119e-14 -1.3893227e-11 
    3200 1.9084241e-15            0 3.7242274e-19 1.6361645e-15 -3.0925337e-12 
    3300 4.0744342e-15            0 6.8018575e-20 3.4924402e-15 3.426452e-12 
    3400 1.3839282e-14            0 3.3843612e-20 1.1862275e-14 6.9386616e-12 
    3500 1.8436766e-14            0 6.0635668e-20 1.5803003e-14 8.5841633e-12 
    3600 1.9935733e-14            0 8.5437938e-20 1.7087857e-14 9.0816784e-12 
    3700 1.8482507e-14            0 9.5601643e-20 1.5842245e-14 8.929241e-12 
    3800 1.5519266e-14            0 9.3322234e-20 1.3302321e-14 8.414744e-12 
    3900 1.219705e-14            0 8.3618127e-20 1.0454698e-14 7.7189879e-12 
    4000 9.360237e-15            0 7.0667963e-20 8.0231309e-15 6.9418173e-12 
Loop time of 5.74768 on 1 procs for 2000 steps with 7 atoms

6.0% CPU use with 1 MPI tasks x no OpenMP threads

Minimization stats:
  Stopping criterion = max iterations
  Energy initial, next-to-last, final = 
    1.98323471650166e-14 7.09021669502258e-20 7.0667962513774e-20
  Force two-norm initial, final = 2.1646638e-05 1.7275008e-07
  Force max component initial, final = 1.2750422e-05 9.8174101e-08
  Final line search alpha, max atom move = 0.0000000 0.0000000
  Iterations, force evaluations = 2000 2000

MPI task timing breakdown:
Section |  min time  |  avg time  |  max time  |%varavg| %total
---------------------------------------------------------------
Pair    | 0          | 0          | 0          |   0.0 |  0.00
Bond    | 0.002488   | 0.002488   | 0.002488   |   0.0 |  0.04
Neigh   | 0          | 0          | 0          |   0.0 |  0.00
Comm    | 0.001262   | 0.001262   | 0.001262   |   0.0 |  0.02
Output  | 0.049403   | 0.049403   | 0.049403   |   0.0 |  0.86
Modify  | 1.8892     | 1.8892     | 1.8892     |   0.0 | 32.87
Other   |            | 3.805      |            |       | 66.21

Nlocal:        7.00000 ave           7 max           7 min
Histogram: 1 0 0 0 0 0 0 0 0 0
Nghost:        0.00000 ave           0 max           0 min
Histogram: 1 0 0 0 0 0 0 0 0 0
Neighs:        0.00000 ave           0 max           0 min
Histogram: 1 0 0 0 0 0 0 0 0 0

Total # of neighbors = 0
Ave neighs/atom = 0.0000000
Ave special neighs/atom = 6.0000000
Neighbor list builds = 0
Dangerous builds = 0
Total wall time: 0:00:18
