LAMMPS (29 Oct 2020)
Processor partition = 81
# LAMMPS task file for neb

      dimension   2
     atom_style bond
     boundary   f f p
     bond_style harmonic
     atom_modify	map array sort 0 0.0

     variable  u uloop 100
     read_data  temp/h_-949394771887858407_8558592821602001382_0.txt
Reading data file ...
  orthogonal box = (-6.0000000 -6.0000000 -6.0000000) to (6.0000000 6.0000000 6.0000000)
  1 by 1 by 1 MPI processor grid
  reading atoms ...
  7 atoms
  scanning bonds ...
  3 = max bonds/atom
  reading bonds ...
  11 bonds
Finding 1-2 1-3 1-4 neighbors ...
  special bond factors lj:    0.0      0.0      0.0     
  special bond factors coul:  0.0      0.0      0.0     
     4 = max # of 1-2 neighbors
     9 = max # of 1-3 neighbors
    28 = max # of 1-4 neighbors
     6 = max # of special neighbors
  special bonds CPU = 0.000 seconds
  read_data CPU = 0.036 seconds
     timestep  0.1
     fix 1 all neb 1.0 parallel ideal

     thermo 100
     fix 2 all enforce2d
     dump 1 all atom 10 temp/0dump.neb.$u
     dump 1 all atom 10 temp/0dump.neb.82
      min_style quickmin
     neb 1e-08 0.0 2000 2000 40 final lammps_util/script/prion_neb_pos.lj0
WARNING: Using 'neigh_modify every 1 delay 0 check yes' setting during minimization (../min.cpp:187)
Per MPI rank memory allocation (min/avg/max) = 4.840 | 4.840 | 4.840 Mbytes
Step Temp E_pair E_mol TotEng Press 
       0            0            0     0.121743     0.121743  0.014295614 
     100  0.013481153            0 7.1113719e-05  0.011626388 0.00061648062 
     200 0.0012599038            0 2.8857211e-06 0.0010828032 7.110857e-05 
     300 8.2323575e-05            0 1.1526297e-06 7.1715694e-05 1.2701423e-06 
     400 0.00015296525            0 8.9423209e-07 0.0001320073 -2.3030527e-06 
     500 0.0028655939            0 1.2900114e-05 0.0024691234 8.6919035e-05 
     600   0.01724305            0 9.5704281e-05  0.014875461 0.00058046005 
     700 0.0020834868            0 4.6085128e-06 0.0017904543 2.6192849e-06 
     800 0.00040833076            0 1.2928619e-06 0.00035129066 6.8400559e-06 
     900 6.6639718e-05            0 7.1404156e-08 5.7191163e-05 1.4007008e-06 
    1000 7.2661349e-06            0 5.8082138e-07 6.808937e-06 2.6682037e-06 
    1100 0.00011202047            0 3.7287419e-07 9.6390423e-05 -1.4730759e-05 
    1200 6.1271705e-06            0 8.8121719e-09 5.2606726e-06 7.0345174e-07 
    1300 6.0057492e-05            0 2.5109565e-09 5.1480361e-05 3.1424025e-06 
    1400 3.8508894e-06            0 2.2064996e-10 3.300983e-06 -8.2821006e-08 
    1500 0.00020178112            0 2.2967989e-08 0.00017297822 1.3503169e-05 
    1600 0.00016309227            0 6.1066777e-07 0.00014040404 -1.4089096e-05 
    1700 0.00026647872            0 3.069604e-06 0.00023147993 3.1948362e-05 
    1800 7.4625266e-05            0 6.9288073e-07 6.4657395e-05 1.0495878e-05 
    1900 3.9139226e-06            0 5.9198544e-08 3.4139894e-06 2.1354974e-06 
    2000  0.084396615            0 0.00021926482   0.07255922  0.003799049 
Loop time of 9.32262 on 1 procs for 2000 steps with 7 atoms

4.5% CPU use with 1 MPI tasks x no OpenMP threads

Minimization stats:
  Stopping criterion = max iterations
  Energy initial, next-to-last, final = 
     0.121743003173116 0.000307027784326484 0.000219264820316459
  Force two-norm initial, final = 2.5970411 1.1285840
  Force max component initial, final = 1.2767598 0.66012934
  Final line search alpha, max atom move = 0.0000000 0.0000000
  Iterations, force evaluations = 2000 2000

MPI task timing breakdown:
Section |  min time  |  avg time  |  max time  |%varavg| %total
---------------------------------------------------------------
Pair    | 0          | 0          | 0          |   0.0 |  0.00
Bond    | 0.002814   | 0.002814   | 0.002814   |   0.0 |  0.03
Neigh   | 0.000226   | 0.000226   | 0.000226   |   0.0 |  0.00
Comm    | 0.001496   | 0.001496   | 0.001496   |   0.0 |  0.02
Output  | 0.29201    | 0.29201    | 0.29201    |   0.0 |  3.13
Modify  | 2.9085     | 2.9085     | 2.9085     |   0.0 | 31.20
Other   |            | 6.118      |            |       | 65.62

Nlocal:        7.00000 ave           7 max           7 min
Histogram: 1 0 0 0 0 0 0 0 0 0
Nghost:        0.00000 ave           0 max           0 min
Histogram: 1 0 0 0 0 0 0 0 0 0
Neighs:        0.00000 ave           0 max           0 min
Histogram: 1 0 0 0 0 0 0 0 0 0

Total # of neighbors = 0
Ave neighs/atom = 0.0000000
Ave special neighs/atom = 6.0000000
Neighbor list builds = 93
Dangerous builds = 0
WARNING: Using 'neigh_modify every 1 delay 0 check yes' setting during minimization (../min.cpp:187)
Per MPI rank memory allocation (min/avg/max) = 4.840 | 4.840 | 4.840 Mbytes
Step Temp E_pair E_mol TotEng Press 
    2000            0            0 0.00021926482 0.00021926482 0.00028252344 
    2100  0.005459095            0 8.4271672e-06 0.0046876515 0.00028256147 
    2200 0.0055986952            0 1.4805238e-05 0.0048136868 0.00033510247 
    2300 2.3253146e-07            0 9.4835816e-08 2.9414849e-07 -6.6333603e-07 
    2400 2.9883014e-06            0 2.7993288e-07 2.8413341e-06 9.8433207e-08 
    2500 0.0085090888            0 2.4855565e-05 0.0073183602 0.00046709388 
    2600 7.5050591e-05            0 3.1644671e-06 6.7493545e-05 -3.2951529e-07 
    2700 2.3296831e-05            0 1.7896881e-06  2.17584e-05 1.5861291e-07 
    2800 8.1774483e-05            0 1.7621513e-06 7.1854565e-05 4.4712876e-06 
    2900 6.5547112e-05            0 1.7569606e-06 5.7940199e-05 1.5790644e-06 
    3000 2.313759e-08            0 1.6937617e-06 1.7135939e-06 -1.6342329e-07 
    3100 1.1034996e-06            0 1.6838655e-06 2.6297223e-06 -1.7375994e-07 
    3200 3.3328716e-08            0 1.6713727e-06 1.6999401e-06 -5.4494123e-08 
    3300 2.9112085e-08            0 1.6625727e-06 1.687526e-06 -6.6177101e-08 
    3400 4.9635169e-08            0  1.65353e-06 1.6960744e-06 -6.1662142e-08 
    3500 4.1275204e-08            0 1.6450492e-06 1.680428e-06 -6.0930823e-08 
    3600 2.7316389e-08            0 1.6364972e-06 1.6599112e-06 -6.1054979e-08 
    3700 1.2433871e-08            0 1.6280945e-06 1.6387521e-06 -6.1321235e-08 
    3800 1.6528612e-08            0 1.6197171e-06 1.6338845e-06 -6.0791806e-08 
    3900 3.2331499e-08            0 1.6113637e-06 1.6390764e-06 -5.9745524e-08 
    4000 9.6985165e-09            0 1.6035185e-06 1.6118315e-06 -6.0227623e-08 
Loop time of 7.65388 on 1 procs for 2000 steps with 7 atoms

5.5% CPU use with 1 MPI tasks x no OpenMP threads

Minimization stats:
  Stopping criterion = max iterations
  Energy initial, next-to-last, final = 
    0.000219264820316459 1.60358774313227e-06 1.60351850829296e-06
  Force two-norm initial, final = 1.1216485 0.00016261784
  Force max component initial, final = 0.65616789 7.3372442e-05
  Final line search alpha, max atom move = 0.0000000 0.0000000
  Iterations, force evaluations = 2000 2000

MPI task timing breakdown:
Section |  min time  |  avg time  |  max time  |%varavg| %total
---------------------------------------------------------------
Pair    | 0          | 0          | 0          |   0.0 |  0.00
Bond    | 0.002926   | 0.002926   | 0.002926   |   0.0 |  0.04
Neigh   | 8.5e-05    | 8.5e-05    | 8.5e-05    |   0.0 |  0.00
Comm    | 0.00145    | 0.00145    | 0.00145    |   0.0 |  0.02
Output  | 0.037437   | 0.037437   | 0.037437   |   0.0 |  0.49
Modify  | 2.4284     | 2.4284     | 2.4284     |   0.0 | 31.73
Other   |            | 5.184      |            |       | 67.72

Nlocal:        7.00000 ave           7 max           7 min
Histogram: 1 0 0 0 0 0 0 0 0 0
Nghost:        0.00000 ave           0 max           0 min
Histogram: 1 0 0 0 0 0 0 0 0 0
Neighs:        0.00000 ave           0 max           0 min
Histogram: 1 0 0 0 0 0 0 0 0 0

Total # of neighbors = 0
Ave neighs/atom = 0.0000000
Ave special neighs/atom = 6.0000000
Neighbor list builds = 35
Dangerous builds = 0
Total wall time: 0:00:17
