LAMMPS (29 Oct 2020)
Processor partition = 80
# LAMMPS task file for neb

      dimension   2
     atom_style bond
     boundary   f f p
     bond_style harmonic
     atom_modify	map array sort 0 0.0

     variable  u uloop 100
     read_data  temp/h_-949394771887858407_8558592821602001382_0.txt
Reading data file ...
  orthogonal box = (-6.0000000 -6.0000000 -6.0000000) to (6.0000000 6.0000000 6.0000000)
  1 by 1 by 1 MPI processor grid
  reading atoms ...
  7 atoms
  scanning bonds ...
  3 = max bonds/atom
  reading bonds ...
  11 bonds
Finding 1-2 1-3 1-4 neighbors ...
  special bond factors lj:    0.0      0.0      0.0     
  special bond factors coul:  0.0      0.0      0.0     
     4 = max # of 1-2 neighbors
     9 = max # of 1-3 neighbors
    28 = max # of 1-4 neighbors
     6 = max # of special neighbors
  special bonds CPU = 0.000 seconds
  read_data CPU = 0.032 seconds
     timestep  0.1
     fix 1 all neb 1.0 parallel ideal

     thermo 100
     fix 2 all enforce2d
     dump 1 all atom 10 temp/0dump.neb.$u
     dump 1 all atom 10 temp/0dump.neb.81
      min_style quickmin
     neb 1e-08 0.0 2000 2000 40 final lammps_util/script/prion_neb_pos.lj0
WARNING: Using 'neigh_modify every 1 delay 0 check yes' setting during minimization (../min.cpp:187)
Per MPI rank memory allocation (min/avg/max) = 4.840 | 4.840 | 4.840 Mbytes
Step Temp E_pair E_mol TotEng Press 
       0            0            0   0.13482647   0.13482647  0.014707144 
     100  0.018959546            0 0.00010998171  0.016361021 0.0010133121 
     200 0.0010864168            0 1.5908279e-06 0.00093280521 4.923902e-05 
     300 9.6478417e-05            0 2.0023279e-06 8.4698114e-05 5.1322419e-06 
     400 0.00035811623            0 1.7400071e-06 0.00030869678 2.324636e-06 
     500 8.4128114e-05            0 1.7419217e-06 7.3851734e-05 -1.7800074e-05 
     600  0.018903663            0 2.5995365e-05  0.016229135 0.00095734008 
     700 0.00026428093            0 2.4468361e-06 0.00022897335 7.1277539e-06 
     800 0.00012064691            0 2.3350376e-06 0.00010574668 8.0378997e-06 
     900 2.3627913e-05            0 1.2205875e-06 2.1473084e-05 3.6429836e-05 
    1000 2.8426623e-05            0 3.1246633e-08 2.4396923e-05 -4.2651859e-06 
    1100 7.5262246e-05            0 2.3654202e-07 6.4747038e-05 7.5091817e-06 
    1200 7.9213502e-06            0 1.3125314e-07 6.9209819e-06 4.6494817e-06 
    1300 3.2226903e-05            0 1.9068608e-08 2.7642129e-05 4.0409904e-06 
    1400 1.1294015e-06            0 5.4764986e-09 9.7353496e-07 -6.9560702e-07 
    1500 0.0015265669            0 3.7666607e-07 0.0013088626 7.3555113e-05 
    1600 0.00016804859            0 1.4548819e-07 0.00014418713 1.8168908e-05 
    1700 0.00018092963            0 2.944871e-07 0.00015537703 -1.9380897e-05 
    1800 7.6593624e-05            0 4.8693689e-08 6.5700371e-05 -7.7832963e-06 
    1900 8.4413257e-06            0 2.3176828e-08 7.2585989e-06 7.3507479e-07 
    2000  0.077049705            0 0.00036326108  0.066405865 0.0023440637 
Loop time of 9.32228 on 1 procs for 2000 steps with 7 atoms

4.6% CPU use with 1 MPI tasks x no OpenMP threads

Minimization stats:
  Stopping criterion = max iterations
  Energy initial, next-to-last, final = 
     0.134826467627433 0.000230006342523181 0.000363261084101609
  Force two-norm initial, final = 2.7509666 1.0820303
  Force max component initial, final = 1.3422345 0.52094299
  Final line search alpha, max atom move = 0.0000000 0.0000000
  Iterations, force evaluations = 2000 2000

MPI task timing breakdown:
Section |  min time  |  avg time  |  max time  |%varavg| %total
---------------------------------------------------------------
Pair    | 0          | 0          | 0          |   0.0 |  0.00
Bond    | 0.002581   | 0.002581   | 0.002581   |   0.0 |  0.03
Neigh   | 0.000195   | 0.000195   | 0.000195   |   0.0 |  0.00
Comm    | 0.00138    | 0.00138    | 0.00138    |   0.0 |  0.01
Output  | 0.28072    | 0.28072    | 0.28072    |   0.0 |  3.01
Modify  | 3.0318     | 3.0318     | 3.0318     |   0.0 | 32.52
Other   |            | 6.006      |            |       | 64.42

Nlocal:        7.00000 ave           7 max           7 min
Histogram: 1 0 0 0 0 0 0 0 0 0
Nghost:        0.00000 ave           0 max           0 min
Histogram: 1 0 0 0 0 0 0 0 0 0
Neighs:        0.00000 ave           0 max           0 min
Histogram: 1 0 0 0 0 0 0 0 0 0

Total # of neighbors = 0
Ave neighs/atom = 0.0000000
Ave special neighs/atom = 6.0000000
Neighbor list builds = 92
Dangerous builds = 0
WARNING: Using 'neigh_modify every 1 delay 0 check yes' setting during minimization (../min.cpp:187)
Per MPI rank memory allocation (min/avg/max) = 4.840 | 4.840 | 4.840 Mbytes
Step Temp E_pair E_mol TotEng Press 
    2000            0            0 0.00036326108 0.00036326108 -0.00086634069 
    2100  0.015270463            0 1.6232011e-05  0.013105201 0.0007667364 
    2200 0.0056108831            0 1.3613696e-05 0.0048229421 0.00014690798 
    2300 1.6066795e-07            0 2.6225868e-09 1.4033798e-07 -9.8093701e-07 
    2400 0.00039917707            0 8.050812e-07 0.00034295685 1.362581e-05 
    2500 0.0062250813            0 6.3144637e-07 0.0053364154 0.00027455602 
    2600 6.4424418e-05            0 5.8887896e-07 5.5809809e-05 -1.9046358e-06 
    2700 8.0138334e-06            0 4.4480375e-07 7.3138038e-06 -3.1408396e-06 
    2800 5.9618701e-05            0 4.0973104e-07 5.1511475e-05 1.0429267e-05 
    2900 4.7069749e-05            0 3.914716e-07 4.0736971e-05 -5.6035569e-06 
    3000 1.6943485e-08            0 1.8534305e-07 1.9986604e-07 -2.3184416e-07 
    3100 1.1550779e-06            0 1.8161742e-07 1.1716842e-06 -1.2903555e-06 
    3200 2.8177761e-08            0 1.7188985e-07 1.9604222e-07 -1.028527e-07 
    3300 1.9463122e-08            0 1.6774002e-07 1.844227e-07 -1.5279911e-07 
    3400 3.392859e-08            0 1.6360538e-07 1.9268703e-07 -1.3017962e-07 
    3500 2.8471108e-08            0 1.5998171e-07 1.8438552e-07 -1.2629763e-07 
    3600 1.8934637e-08            0 1.5646126e-07 1.7269095e-07 -1.2265135e-07 
    3700 8.6597614e-09            0 1.5311798e-07 1.6054063e-07 -1.19379e-07 
    3800 1.1568214e-08            0 1.4989353e-07 1.5980915e-07 -1.1561759e-07 
    3900 2.2751199e-08            0 1.4678364e-07 1.6628467e-07 -1.1158782e-07 
    4000 6.8649458e-09            0 1.4395807e-07 1.4984231e-07 -1.0847536e-07 
Loop time of 7.64983 on 1 procs for 2000 steps with 7 atoms

5.6% CPU use with 1 MPI tasks x no OpenMP threads

Minimization stats:
  Stopping criterion = max iterations
  Energy initial, next-to-last, final = 
    0.000363261084101609 1.43982595180934e-07 1.43958066178324e-07
  Force two-norm initial, final = 1.0747803 0.00013681931
  Force max component initial, final = 0.51729005 7.1769334e-05
  Final line search alpha, max atom move = 0.0000000 0.0000000
  Iterations, force evaluations = 2000 2000

MPI task timing breakdown:
Section |  min time  |  avg time  |  max time  |%varavg| %total
---------------------------------------------------------------
Pair    | 0          | 0          | 0          |   0.0 |  0.00
Bond    | 0.002726   | 0.002726   | 0.002726   |   0.0 |  0.04
Neigh   | 9.2e-05    | 9.2e-05    | 9.2e-05    |   0.0 |  0.00
Comm    | 0.0014     | 0.0014     | 0.0014     |   0.0 |  0.02
Output  | 0.038061   | 0.038061   | 0.038061   |   0.0 |  0.50
Modify  | 2.5214     | 2.5214     | 2.5214     |   0.0 | 32.96
Other   |            | 5.086      |            |       | 66.49

Nlocal:        7.00000 ave           7 max           7 min
Histogram: 1 0 0 0 0 0 0 0 0 0
Nghost:        0.00000 ave           0 max           0 min
Histogram: 1 0 0 0 0 0 0 0 0 0
Neighs:        0.00000 ave           0 max           0 min
Histogram: 1 0 0 0 0 0 0 0 0 0

Total # of neighbors = 0
Ave neighs/atom = 0.0000000
Ave special neighs/atom = 6.0000000
Neighbor list builds = 42
Dangerous builds = 0
Total wall time: 0:00:17
