LAMMPS (29 Oct 2020)
Running on 80 partitions of processors
Step MaxReplicaForce MaxAtomForce GradV0 GradV1 GradVc EBF EBR RDT RD1 PE1 RD2 PE2 ... RDN PEN
0     2.808187    2.2298476            0   0.05740883    2.8082112  0.072331126  0.072272275    3.6041352            0            0  0.012658228 0.00014684899  0.025316456 0.00057777447  0.037974684 0.0012781224  0.050632911 0.0022329499  0.063291139 0.0034270351  0.075949367 0.0048448896  0.088607595 0.0064707723   0.10126582 0.0082887058   0.11392405  0.010282495   0.12658228   0.01243575   0.13924051  0.014731905   0.15189873  0.017154254   0.16455696  0.019685971   0.17721519  0.022310147   0.18987342  0.025009827   0.20253165  0.027768045   0.21518987   0.03056787    0.2278481  0.033392445   0.24050633  0.036225042   0.25316456  0.039049108   0.26582278  0.041848319   0.27848101  0.044606638   0.29113924  0.047308373   0.30379747  0.049938236    0.3164557  0.052481409   0.32911392  0.054923601   0.34177215  0.057251117   0.35443038  0.059450922   0.36708861  0.061510702   0.37974684  0.063418926   0.39240506  0.065164911   0.40506329  0.066738875   0.41772152  0.068131993   0.43037975  0.069336451   0.44303797  0.070345485    0.4556962  0.071153428   0.46835443  0.071755741   0.48101266  0.072149042   0.49367089  0.072331126   0.50632911   0.07230098   0.51898734  0.072058787   0.53164557  0.071605929    0.5443038  0.070944972   0.55696203  0.070079655   0.56962025  0.069014863   0.58227848  0.067756599   0.59493671  0.066311945   0.60759494  0.064689021   0.62025316  0.062896939   0.63291139  0.060945747   0.64556962  0.058846378   0.65822785  0.056610588   0.67088608  0.054250896    0.6835443  0.051780522   0.69620253  0.049213323   0.70886076  0.046563728   0.72151899  0.043846677   0.73417722  0.041077557   0.74683544  0.038272139   0.75949367  0.035446522    0.7721519  0.032617072   0.78481013  0.029800371   0.79746835   0.02701316   0.81012658   0.02427229   0.82278481   0.02159468   0.83544304  0.018997266   0.84810127  0.016496968   0.86075949  0.014110646   0.87341772  0.011855068   0.88607595 0.0097468805   0.89873418 0.0078025757   0.91139241 0.0060384689   0.92405063 0.0044706741   0.93670886 0.0031150841   0.94936709 0.0019873516   0.96202532 0.0011028743   0.97468354 0.00047678116   0.98734177 0.00012392058            1 5.8851194e-05 
40 0.0025539069 2.4174367e-06            0 0.0015679823 0.0015451431 1.2138296e-05 1.0522069e-05     3.716005            0            0  0.012662843 1.5148104e-08   0.02532546 5.9560747e-08  0.037987834 1.3161785e-07   0.05064995 2.296143e-07  0.063311791 3.517778e-07  0.075973344 4.962901e-07  0.088634596 6.6131101e-07   0.10129553 8.4500436e-07   0.11395615 1.045565e-06   0.12661643 1.2612456e-06   0.13927637 1.4903831e-06   0.15193596 1.7314223e-06   0.16459521 1.9829372e-06   0.17725411 2.2436484e-06   0.18991265 2.5124364e-06   0.20257085 2.7883501e-06   0.21522871 3.0706104e-06   0.22788624 3.3586082e-06   0.24054344 3.6518983e-06   0.25320033 3.9501874e-06   0.26585692 4.2533182e-06   0.27851323 4.5612493e-06   0.29116928 4.8740303e-06   0.30382508 5.191775e-06   0.31648065 5.5146302e-06   0.32913603 5.8427424e-06   0.34179123 6.1762224e-06   0.35444628 6.5151069e-06    0.3671012 6.8593198e-06   0.37975603 7.2086298e-06   0.39241079 7.5626085e-06   0.40506552 7.9205863e-06   0.41772024 8.2816074e-06   0.43037497 8.6443851e-06   0.44302976 9.0072574e-06   0.45568463 9.3681444e-06    0.4683396 9.7245096e-06   0.48099804  1.00734e-05   0.49365823 1.0411218e-05   0.50631248 1.0735044e-05   0.51896708 1.1038015e-05   0.53162268 1.1315923e-05    0.5442788 1.1563472e-05   0.55693479 1.1774835e-05   0.56959122 1.1943989e-05    0.5822446 1.206498e-05   0.59490829 1.213143e-05   0.60755842 1.2138296e-05   0.62021367 1.2080633e-05   0.63286911 1.195439e-05   0.64552477 1.1756776e-05   0.65818068 1.1486417e-05   0.67083685 1.114357e-05   0.68349331 1.0730268e-05   0.69615006 1.0250388e-05   0.70880711 9.7096488e-06   0.72146449 9.1155047e-06   0.73412219 8.4769677e-06   0.74678021 7.8043462e-06   0.75943857 7.1089281e-06   0.77209726 6.4026211e-06   0.78475627 5.6975766e-06    0.7974156 5.0058161e-06   0.81007525 4.3388814e-06    0.8227352 3.7075253e-06   0.83539543 3.1214553e-06   0.84805595 2.5891368e-06   0.86071674 2.1176599e-06   0.87337778 1.7126679e-06   0.88603906 1.3783424e-06   0.89870056 1.1174385e-06   0.91136229 9.3136149e-07   0.92402491 8.201752e-07   0.93668637 7.8316276e-07   0.94934924 8.183145e-07   0.96201221 9.2283354e-07    0.9746752 1.0933269e-06   0.98733814 1.3258682e-06            1 1.6162267e-06 
80  0.001526787 1.8001103e-06            0 0.00065815223 0.0012139563 9.977107e-06 9.6420569e-06    3.7168553            0            0  0.012658184 3.8597773e-09  0.025316371 1.5484215e-08  0.037974561 3.4987577e-08  0.050632753 6.2538206e-08  0.063290949 9.8348044e-08  0.075949147 1.4266193e-07  0.088607348 1.9574704e-07   0.10126555 2.5788273e-07   0.11392376 3.2935127e-07   0.12658197 4.1042964e-07   0.13924018 5.0138284e-07   0.15189839 6.0245874e-07   0.16455661 7.1388479e-07   0.17721483 8.3586639e-07   0.18987305 9.6858708e-07   0.20253127  1.11221e-06   0.21518949 1.2668809e-06   0.22784771 1.4327311e-06   0.24050594 1.6098818e-06   0.25316416 1.7984473e-06   0.26582239 1.9985375e-06   0.27848062 2.2102598e-06   0.29113884 2.4337183e-06   0.30379707 2.6690111e-06    0.3164553 2.9162253e-06   0.32911352 3.1754281e-06   0.34177175 3.4466551e-06   0.35442998 3.7298947e-06    0.3670882 4.0250682e-06   0.37974643 4.3320056e-06   0.39240466 4.6504159e-06   0.40506288 4.9798525e-06   0.41772111 5.3196719e-06   0.43037933 5.6689862e-06   0.44303755 6.0266077e-06   0.45569578 6.390987e-06     0.468354 6.7601437e-06   0.48101222 7.1315919e-06   0.49367044 7.5022567e-06   0.50632866 7.8695408e-06   0.51898687 8.2268481e-06   0.53164509 8.569611e-06    0.5443033 8.891981e-06   0.55696151 9.1871136e-06   0.56961972 9.4474546e-06   0.58227792 9.6649336e-06   0.59493613 9.8311524e-06   0.60759433 9.9378093e-06   0.62025252 9.977107e-06   0.63291071 9.9423072e-06   0.64556892 9.8282724e-06   0.65822713 9.6320329e-06   0.67088535 9.3532549e-06   0.68354357 8.994559e-06   0.69620181 8.5616311e-06   0.70886006 8.0630896e-06   0.72151833 7.5101049e-06   0.73417661 6.915802e-06   0.74683491 6.2945103e-06   0.75949323 5.6609418e-06   0.77215155 5.0293872e-06   0.78480988 4.4130089e-06   0.79746822 3.823289e-06   0.81012655 3.2696624e-06   0.82278488 2.7593422e-06   0.83544321 2.2973154e-06   0.84810152 1.8864793e-06   0.86075982 1.5278759e-06   0.87341811 1.2209849e-06   0.88607638 9.6403996e-07   0.89873463 7.543394e-07   0.91139287 5.8853256e-07    0.9240511 4.6278818e-07   0.93670931 3.7331715e-07   0.94936749 3.1611739e-07   0.96202569 2.8725089e-07   0.97468385 2.830395e-07     0.987342 3.0002107e-07            1 3.3505002e-07 
120 0.0011791632 9.5833911e-07            0 0.00029350154 0.00077751651 8.7652648e-06 8.6896295e-06    3.7182291            0            0  0.012658173 9.5873768e-10  0.025316348 3.7627448e-09  0.037974523 8.3632246e-09    0.0506327 1.4789956e-08  0.063290878 2.3150019e-08  0.075949059 3.3626081e-08   0.08860724 4.6474172e-08   0.10126542 6.2020893e-08   0.11392361 8.0660021e-08    0.1265818 1.0284852e-07   0.13923999 1.2910198e-07   0.15189818 1.599895e-07   0.16455637 1.9612819e-07   0.17721457 2.3817728e-07   0.18987277 2.8683206e-07   0.20253097 3.4281773e-07   0.21518917 4.0688326e-07   0.22784738 4.7979548e-07   0.24050558 5.6233334e-07   0.25316379 6.5528258e-07     0.265822 7.5943063e-07   0.27848022 8.7556183e-07   0.29113843 1.0044528e-06   0.30379665 1.146868e-06   0.31645486 1.3035545e-06   0.32911308 1.4752371e-06    0.3417713 1.6626116e-06   0.35442952 1.8663367e-06   0.36708775 2.0870237e-06   0.37974597 2.3252228e-06   0.39240419 2.5814047e-06   0.40506242 2.8559363e-06   0.41772065 3.1490476e-06   0.43037888 3.4607891e-06   0.44303711 3.7909748e-06   0.45569534 4.1391089e-06   0.46835358 4.5042928e-06   0.48101181  4.88511e-06   0.49367005 5.2794869e-06   0.50632829 5.6853158e-06   0.51898652 6.0971845e-06   0.53164476 6.5103106e-06     0.544303 6.9183475e-06   0.55696123 7.3131563e-06   0.56961945 7.6849449e-06   0.58227767 8.0223582e-06   0.59493589 8.3126179e-06   0.60759409 8.5421396e-06   0.62025229 8.6972496e-06   0.63291048 8.7652648e-06   0.64556866 8.7358094e-06   0.65822686 8.6020855e-06   0.67088507 8.3620837e-06   0.68354328 8.0193699e-06   0.69620151 7.5832591e-06   0.70885977 7.0682945e-06   0.72151805 6.4930662e-06   0.73417635 5.8785511e-06   0.74683468 5.2462559e-06   0.75949302 4.6164648e-06   0.77215137 4.0068431e-06   0.78480973 3.4315375e-06   0.79746809 2.9008032e-06   0.81012644 2.4210858e-06   0.82278478 1.9954357e-06   0.83544311 1.6241131e-06   0.84810142 1.3052602e-06   0.86075971 1.0355478e-06   0.87341798 8.1074028e-07   0.88607624 6.2615175e-07   0.89873448 4.7698998e-07    0.9113927 3.5859863e-07   0.92405092 2.6655819e-07   0.93670912 1.9699056e-07   0.94936731 1.4630869e-07    0.9620255 1.1136681e-07   0.97468367 8.9437873e-08   0.98734184 7.818798e-08            1 7.5635335e-08 
160 0.00083390528 4.0719654e-07            0 0.00012463043 0.00037743011 8.2845687e-06 8.2683683e-06    3.7200587            0            0  0.012658168 2.5777786e-10  0.025316337 9.2168655e-10  0.037974506 1.867661e-09  0.050632675 3.0254619e-09  0.063290845 4.3793745e-09  0.075949016 5.9690946e-09  0.088607188 7.8907376e-09   0.10126536 1.0297901e-08   0.11392353 1.3402715e-08   0.12658171 1.7476818e-08   0.13923988 2.2852202e-08   0.15189806 2.9921856e-08   0.16455624 3.9140199e-08   0.17721442 5.1023228e-08    0.1898726 6.6148398e-08   0.20253078  8.51542e-08   0.21518896 1.0873947e-07   0.22784715 1.3766244e-07   0.24050534 1.7273957e-07   0.25316352 2.1484421e-07   0.26582171 2.6490517e-07   0.27847991 3.2390525e-07    0.2911381 3.928797e-07    0.3037963 4.7291478e-07    0.3164545 5.651463e-07    0.3291127 6.7075801e-07    0.3417709 7.9097989e-07    0.3544291 9.2708569e-07   0.36708731 1.0803895e-06   0.37974552 1.2522401e-06   0.39240374 1.4440128e-06   0.40506196 1.6570951e-06   0.41772018 1.8928661e-06    0.4303784 2.1526638e-06   0.44303664 2.4377369e-06   0.45569487 2.749174e-06   0.46835311 3.0878019e-06   0.48101136 3.454045e-06   0.49366961 3.847738e-06   0.50632787 4.2683821e-06   0.51898613 4.7127522e-06    0.5316444 5.177097e-06   0.54430266 5.6556239e-06   0.55696093 6.1396532e-06   0.56961919 6.6173221e-06   0.58227743 7.0732561e-06   0.59493567 7.4883789e-06   0.60759389 7.8405755e-06   0.62025209 8.1058734e-06   0.63291028 8.2606366e-06   0.64556845 8.2845687e-06   0.65822663 8.1641561e-06   0.67088482 7.8956829e-06   0.68354303 7.4871729e-06   0.69620127 6.9582776e-06   0.70885955 6.3380477e-06   0.72151787 5.6610139e-06   0.73417623 4.9625581e-06   0.74683462 4.2746974e-06   0.75949303 3.6231297e-06   0.77215144 3.0258786e-06   0.78480984 2.4933846e-06   0.79746823 2.029591e-06    0.8101266 1.6335057e-06   0.82278494 1.3008165e-06   0.83544326 1.0252982e-06   0.84810155 7.9989757e-07   0.86075982 6.1748746e-07   0.87341808 4.7133822e-07   0.88607631 3.5537314e-07   0.89873453 2.6427373e-07   0.91139274 1.9348914e-07   0.92405094 1.3915794e-07   0.93670916 9.8156812e-08   0.94936701 6.784711e-08   0.96202548 4.6083105e-08   0.97468365 3.1113825e-08   0.98734128 2.1531405e-08            1 1.6200404e-08 
200 0.0021209794 1.5475119e-06            0 6.0644973e-05 0.00018073617 8.1776905e-06 8.1729517e-06    3.7219775            0            0  0.012658138 1.185587e-10  0.025316276 3.8557328e-10  0.037974415 6.9539547e-10  0.050632553 9.7898683e-10  0.063290692 1.2043853e-09  0.075948831 1.3774715e-09  0.088606971 1.5429993e-09   0.10126511 1.7858536e-09   0.11392325 2.2325043e-09   0.12658139 3.0526231e-09   0.13923954 4.4608359e-09   0.15189768 6.7185843e-09   0.16455583 1.0136078e-08   0.17721398 1.5074321e-08   0.18987212 2.1947211e-08   0.20253028 3.1223709e-08   0.21518843 4.3430104e-08   0.22784659 5.9152385e-08   0.24050474 7.9038791e-08    0.2531629 1.0380257e-07   0.26582107 1.3422503e-07   0.27847924 1.7115901e-07   0.29113741 2.1553279e-07   0.30379558 2.6835462e-07   0.31645376 3.3071801e-07   0.32911194 4.0380768e-07   0.34177013 4.8890647e-07   0.35442832 5.8740303e-07   0.36708651    7.008e-07   0.37974471 8.3072259e-07   0.39240292 9.7892665e-07   0.40506113 1.1473047e-06   0.41771934 1.3378883e-06   0.43037757 1.5528432e-06    0.4430358 1.7944521e-06   0.45569404 2.0650774e-06   0.46835229 2.3670931e-06   0.48101055 2.7027716e-06   0.49366883 3.0741137e-06   0.50632711 3.4829594e-06   0.51898539 3.9289404e-06    0.5316437 4.4108979e-06   0.54430201 4.9254057e-06   0.55696032 5.4653518e-06   0.56961863 6.0189021e-06   0.58227693 6.5682601e-06   0.59493522 7.088514e-06   0.60759345 7.5476782e-06   0.62025171 7.9080388e-06    0.6329098 8.1298818e-06   0.64556795 8.1776905e-06   0.65822604 8.0278984e-06   0.67088412 7.676145e-06   0.68354223 7.1411357e-06   0.69620039 6.4628095e-06   0.70885862 5.6950539e-06    0.7215169 4.895328e-06   0.73417523 4.1147809e-06   0.74683358 3.3917472e-06   0.75949193 2.7496017e-06   0.77215026 2.1981713e-06   0.78480856 1.7370678e-06   0.79746682 1.3594162e-06   0.81012505 1.0550359e-06   0.82278324 8.1272037e-07    0.8354414 6.2164617e-07   0.84809953 4.7210718e-07   0.86075765 3.5579724e-07   0.87341575 2.6582597e-07   0.88607384 1.9659719e-07   0.89873192 1.4363118e-07      0.91139 1.0337724e-07   0.92404807 7.302197e-08   0.93670339 5.0410665e-08   0.94939447 3.3770338e-08   0.96202435 2.1873087e-08   0.97468242 1.3566885e-08   0.98739543 8.0595904e-09            1 4.7388317e-09 
240 0.0007786107 3.6818018e-07            0 3.5112587e-05 9.5534342e-05 8.1537629e-06 8.1518562e-06    3.7239268            0            0  0.012658153 7.5923057e-11  0.025316307 2.3733885e-10   0.03797446 4.0447209e-10  0.050632614 5.2387355e-10  0.063290767 5.6865461e-10  0.075948891 5.3894732e-10  0.088607038 4.6285661e-10   0.10126526 3.9755847e-10   0.11392341 4.300278e-10   0.12658157 6.787569e-10   0.13923972 1.2957966e-09   0.15189788 2.4681603e-09   0.16455603 4.4199943e-09   0.17721419 7.4148236e-09   0.18987234 1.1758016e-08    0.2025305 1.7799489e-08   0.21518866 2.5936706e-08   0.22784681 3.6617999e-08   0.24050497 5.0346317e-08   0.25316313 6.7683464e-08   0.26582129 8.9254966e-08   0.27847945 1.1575569e-07   0.29113761 1.4795643e-07   0.30379577 1.8671157e-07   0.31645394 2.3296822e-07    0.3291121 2.8777688e-07   0.34177027 3.5230412e-07   0.35442844 4.2784742e-07   0.36708661 5.158525e-07   0.37974479 6.1793329e-07   0.39240297 7.3589454e-07   0.40506115 8.7175682e-07   0.41771934 1.0277829e-06   0.43037754 1.2065035e-06   0.44303575 1.4107394e-06   0.45569396 1.6436127e-06   0.46835218 1.9085383e-06   0.48101042 2.209179e-06   0.49366868 2.5493553e-06   0.50632695 2.9331487e-06   0.51898523 3.3631202e-06   0.53164354 3.8413907e-06   0.54430186 4.3681167e-06    0.5569602 4.9396343e-06   0.56961855 5.5465857e-06   0.58227689 6.171378e-06   0.59493521 6.7852962e-06   0.60759349 7.3468094e-06   0.62025172 7.8020627e-06    0.6329099 8.0900671e-06   0.64556805 8.1537629e-06    0.6582262 7.9555349e-06   0.67088437 7.4923843e-06    0.6835426 6.8025521e-06   0.69620093 5.9583249e-06   0.70885937 5.0475566e-06    0.7215179 4.1521535e-06   0.73417646 3.3326266e-06   0.74683503 2.6228718e-06   0.75949357 2.0334754e-06   0.77215206 1.559045e-06   0.78481048 1.185638e-06   0.79746886 8.9631922e-07   0.81012718 6.7451724e-07   0.82278547 5.0564837e-07   0.83544372 3.7764115e-07   0.84810195 2.808739e-07   0.86076016 2.0785739e-07   0.87341835 1.5284769e-07   0.88607654  1.11478e-07   0.89873472 8.0444271e-08   0.91139289 5.7251581e-08   0.92405106 4.0006395e-08   0.93670923 2.7303361e-08    0.9493673 1.8057479e-08   0.96202553 1.1450274e-08   0.97468369 6.8541464e-09    0.9873417 3.7939848e-09            1 1.9066971e-09 
280 0.00077522108 3.5941239e-07            0 2.3185922e-05 6.5928869e-05 8.1458856e-06 8.1449512e-06    3.7259462            0            0  0.012658143 5.4674673e-11  0.025316287 1.6882073e-10   0.03797443 2.8239654e-10  0.050632574 3.5497533e-10  0.063290717 3.6584092e-10  0.075948861 3.1436545e-10  0.088607005 2.2059162e-10   0.10126515 1.2608688e-10   0.11392329 9.5194891e-11   0.12658144 2.1514212e-10   0.13923958 5.9890952e-10   0.15189772 1.3861134e-09   0.16455587 2.744916e-09   0.17721401 4.8741396e-09   0.18987216 8.005605e-09    0.2025303 1.2406773e-08   0.21518845 1.8383735e-08    0.2278466 2.6284629e-08   0.24050474 3.6503559e-08   0.25316289 4.9485141e-08   0.26582104 6.5729812e-08   0.27847918 8.5800081e-08   0.29113733 1.1032794e-07   0.30379548 1.4002372e-07   0.31645363 1.7568666e-07   0.32911178 2.1821771e-07   0.34176994 2.6863487e-07   0.35442809 3.2809175e-07   0.36708625 3.9789991e-07   0.37974441 4.7955573e-07   0.39240258 5.7477247e-07   0.40506075 6.8551831e-07   0.41771892 8.1406066e-07    0.4303771 9.6301693e-07   0.44303529 1.1354105e-06   0.45569349 1.3347286e-06    0.4683517 1.564976e-06   0.48100993 1.8307127e-06   0.49366817 2.1370726e-06   0.50632644 2.4899293e-06   0.51898473 2.8944403e-06   0.53164305 3.3560038e-06    0.5443014 3.878835e-06   0.55695977 4.4639138e-06   0.56961817 5.1064178e-06   0.58227657 5.7917624e-06   0.59493495 6.4903376e-06   0.60759328 7.1527171e-06   0.62025154 7.7075561e-06   0.63290973 8.0673084e-06   0.64556787 8.1458856e-06   0.65822601 7.8868389e-06   0.67088418 7.2920528e-06   0.68354245 6.4314311e-06   0.69620088 5.4231663e-06   0.70885946 4.3948794e-06   0.72151812 3.4473989e-06    0.7341768 2.6379493e-06   0.74683543 1.9835217e-06   0.75949399 1.4745044e-06   0.77215246 1.0886793e-06   0.78481086 8.0092015e-07   0.79746919 5.8827055e-07   0.81012747 4.3182085e-07   0.82278572 3.168681e-07   0.83544393 2.3235534e-07   0.84810213 1.701238e-07   0.86076031 1.2421313e-07   0.87341849 9.028739e-08   0.88607665 6.5193911e-08   0.89873481 4.6635967e-08   0.91139297 3.2934643e-08   0.92405112 2.2851609e-08   0.93670927 1.5488229e-08   0.94936742 1.0166259e-08   0.96202556 6.3834148e-09   0.97468371 3.7607501e-09   0.98734185 2.0155168e-09            1 9.3445681e-10 
320 0.0010522925 4.0694692e-07            0 1.4939409e-05 6.4051062e-05 8.1389041e-06 8.1384848e-06     3.728838            0            0  0.012658331 3.7512018e-11  0.025316657 1.1528356e-10  0.037974978 1.9149658e-10  0.050633293 2.3799001e-10  0.063291629 2.4031296e-10   0.07594355 1.981959e-10  0.088599616 1.2503849e-10   0.10127076 4.8856375e-11    0.1139294 1.4696299e-11   0.12658649 8.4246256e-11   0.13924366 3.3471067e-10   0.15190085 8.6431783e-10   0.16455805 1.7911927e-09   0.17721527 3.2556984e-09   0.18987251 5.4224271e-09   0.20252978 8.4824915e-09   0.21518708 1.2656172e-08   0.22784441 1.8195997e-08   0.24050177 2.5390341e-08   0.25315917 3.4567671e-08   0.26581661 4.6101583e-08   0.27847409 6.0416833e-08   0.29113161 7.7996579e-08   0.30378918 9.939119e-08    0.3164468 1.2522895e-07   0.32910447 1.5622918e-07   0.34176219 1.9321836e-07   0.35441996 2.3715008e-07   0.36707779 2.8912965e-07   0.37973566 3.504447e-07   0.39239359 4.226031e-07   0.40505158 5.0738004e-07   0.41770962 6.0687632e-07   0.43036772 7.2359015e-07   0.44302588 8.6050472e-07    0.4556841 1.0211934e-06   0.46834238 1.2099428e-06   0.48100072 1.4318921e-06   0.49365914 1.6931985e-06   0.50631765 2.001335e-06   0.51897624 2.3641267e-06   0.53163493 2.7907545e-06   0.54429373 3.2907355e-06   0.55695266 3.872065e-06   0.56961172 4.5382439e-06   0.58227089 5.2827473e-06   0.59493015 6.0801008e-06   0.60758941 6.8748035e-06   0.62024857 7.5718357e-06   0.63290764 8.0396466e-06   0.64556591 8.1389041e-06   0.65822401 7.7787862e-06   0.67088191 6.9772253e-06   0.68354004 5.8725022e-06   0.69619846 4.6661038e-06   0.70885712 3.5381424e-06   0.72151592 2.5936539e-06   0.73417478 1.8609903e-06   0.74683364 1.3202386e-06   0.75949246 9.3278395e-07   0.77215125 6.5939421e-07   0.78480999 4.6760008e-07    0.7974687 3.3301327e-07   0.81012738 2.3820898e-07   0.82278605 1.7104698e-07    0.8354447 1.231607e-07   0.84810334 8.8798286e-08   0.86076199 6.3995094e-08   0.87342063 4.6002999e-08   0.88607928 3.2903103e-08   0.89873793 2.3344534e-08   0.91139658 1.6368174e-08   0.92405524 1.1284421e-08    0.9367154 7.6024682e-09   0.94935609 4.9643552e-09   0.96202835 3.0935239e-09   0.97468684 1.8044828e-09   0.98731514 9.537153e-10            1 4.1924077e-10 
360 0.00075722819 3.4162177e-07            0 1.0958949e-05 7.2897906e-05 8.1322771e-06 8.1320453e-06    3.7314256            0            0  0.012658116 2.8175406e-11  0.025316232 8.6479909e-11  0.037974348 1.4340114e-10  0.050632464 1.7773993e-10   0.06329058 1.7865668e-10  0.075948694 1.4564848e-10   0.08860681 8.9056292e-11   0.10126493 3.0468672e-11   0.11392305 3.4317343e-12   0.12658116 5.390581e-11   0.13923928 2.4127196e-10   0.15189739 6.3959644e-10   0.16455551 1.3386902e-09   0.17721362 2.4456068e-09   0.18987174 4.086328e-09   0.20252986 6.4077249e-09   0.21518797 9.5798488e-09   0.22784609 1.379862e-08   0.24050421 1.9289006e-08   0.25316232 2.6308798e-08   0.26582044 3.5153147e-08   0.27847856 4.6160022e-08   0.29113667 5.9716856e-08   0.30379479 7.6268675e-08   0.31645291 9.6328091e-08   0.32911103 1.2048769e-07   0.34176915 1.4943544e-07   0.35442727 1.8397398e-07    0.3670854 2.2504484e-07   0.37974352 2.7375903e-07   0.39240165 3.314358e-07   0.40505978 3.996519e-07   0.41771792 4.8030436e-07   0.43037606 5.7569051e-07   0.44303421 6.8860995e-07   0.45569237 8.2249385e-07   0.46835054 9.8156766e-07   0.48100873 1.1710544e-06   0.49366694 1.3974416e-06   0.50632517 1.6688861e-06   0.51898344 1.9946594e-06   0.53164176 2.3862863e-06   0.54430013 2.8570328e-06   0.55695857 3.4205728e-06   0.56961707 4.0882659e-06   0.58227563 4.863003e-06   0.59493421 5.7274948e-06   0.60759275 6.6265866e-06   0.62025115 7.4475174e-06   0.63290936 8.0154509e-06   0.64556748 8.1322771e-06   0.65822558 7.6693137e-06   0.67088379 6.670977e-06    0.6835423 5.3610516e-06   0.69620114  4.02536e-06   0.70886016 2.8740389e-06   0.72151915 1.9885897e-06   0.73417797 1.3550902e-06    0.7468366 9.1995721e-07   0.75949507 6.266709e-07   0.77215343 4.2995699e-07    0.7848117 2.9756626e-07   0.79746992 2.0775734e-07    0.8101281 1.4621995e-07   0.82278627 1.0360199e-07   0.83544441 7.3777975e-08   0.84810255 5.270598e-08   0.86076068 3.7691683e-08   0.87341881 2.6918344e-08   0.88607694 1.914628e-08   0.89873506 1.3519506e-08   0.91139318 9.440172e-09    0.9240513 6.4845228e-09   0.93670942 4.3545517e-09   0.94936753 2.8323346e-09   0.96202565 1.7603322e-09   0.97468377 1.0225542e-09   0.98734188 5.3405032e-10            1 2.3182932e-10 
400 0.0007551643 3.3703191e-07            0 7.5712917e-06 8.8904604e-05 8.1207404e-06 8.1206281e-06    3.7351175            0            0    0.0126581 1.9755605e-11  0.025316201 6.0585406e-11  0.037974301 1.0035903e-10  0.050632402 1.2421268e-10  0.063290502 1.2457346e-10  0.075948658 1.0109847e-10  0.088606782 6.1079569e-11   0.10126478 1.9710939e-11   0.11392287 5.8947446e-13   0.12658099 3.6152451e-11    0.1392391 1.6833656e-10   0.15189721 4.4956682e-10   0.16455532 9.4359836e-10   0.17721343 1.7266739e-09   0.18987154 2.8888519e-09   0.20252964 4.5355665e-09   0.21518775 6.7894685e-09   0.22784585 9.7926056e-09   0.24050396 1.3709024e-08   0.25316206 1.8727891e-08   0.26582016 2.5067269e-08   0.27847826 3.2978714e-08   0.29113636 4.2752911e-08   0.30379446 5.4726638e-08   0.31645256 6.9291423e-08   0.32911066 8.6904376e-08   0.34176875 1.0810184e-07   0.35442685 1.335167e-07   0.36708495 1.6390045e-07   0.37974305 2.0015156e-07   0.39240115 2.4335211e-07   0.40505926 2.9481539e-07   0.41771737 3.5614823e-07   0.43037548 4.293329e-07    0.4430336 5.1683544e-07   0.45569172 6.2174924e-07   0.46834986 7.4798617e-07   0.48100802 9.0053268e-07   0.49366619 1.0858088e-06   0.50632439 1.3121847e-06   0.51898263 1.5898927e-06   0.53164092 1.9323872e-06   0.54429928 2.3565928e-06   0.55695772 2.8826056e-06   0.56961626 3.5320628e-06   0.58227491 4.3224568e-06   0.59493363 5.2530919e-06   0.60759233 6.2780933e-06   0.62025086 7.2672536e-06   0.63290912 7.9810174e-06   0.64556722 8.1207404e-06    0.6582253 7.4938491e-06   0.67088358 6.2075179e-06   0.68354235 4.644264e-06   0.69620155 3.2071122e-06   0.70886083 2.1056487e-06   0.72151991 1.3512628e-06    0.7341787 8.6451345e-07   0.74683724 5.5781388e-07   0.75949562 3.6497468e-07   0.77215388 2.4257172e-07   0.78481209 1.6370753e-07   0.79747025 1.1202843e-07   0.81012839 7.7583753e-08   0.82278651 5.4255258e-08   0.83544463 3.8223892e-08   0.84810274 2.7064916e-08   0.86076084 1.9211777e-08   0.87341895 1.3634957e-08   0.88607705 9.6467675e-09   0.89873515 6.7807856e-09   0.91139324 4.7161394e-09   0.92405134 3.2283674e-09   0.93670942 2.1612472e-09   0.94936768 1.4017048e-09   0.96202566 8.6870307e-10   0.97468376 5.029799e-10   0.98734212 2.6143031e-10            1 1.1229106e-10 
440 0.00073667335 3.1752331e-07            0 5.3739153e-06 0.00010758842 8.104886e-06 8.1048291e-06    3.7391239            0            0  0.012658046 1.4125279e-11  0.025316093 4.3292876e-11  0.037974139 7.1665522e-11  0.050632185 8.8622638e-11  0.063290231 8.8756328e-11  0.075947608 7.1875975e-11  0.088605351 4.3210037e-11   0.10126464 1.3636601e-11   0.11392274 1.4058455e-13   0.12658063 2.6007279e-11   0.13923854 1.2142907e-10   0.15189647 3.2419443e-10   0.16455442 6.8036569e-10   0.17721238 1.2451697e-09   0.18987036 2.0840341e-09   0.20252836 3.2738141e-09   0.21518637 4.9042483e-09    0.2278444 7.0796975e-09   0.24050245 9.9212311e-09   0.25316051 1.3569149e-08   0.26581858 1.8186053e-08   0.27847667 2.3960606e-08   0.29113478 3.1112185e-08   0.30379289 3.9896658e-08   0.31645102 5.0613632e-08   0.32910915 6.3615595e-08    0.3417673 7.9319541e-08   0.35442545 9.8221859e-08   0.36708361 1.2091755e-07   0.37974177 1.4812522e-07   0.39239994 1.8071981e-07   0.40505812 2.1977594e-07    0.4177163 2.6662558e-07   0.43037448 3.2293561e-07   0.44303267 3.9081305e-07   0.45569086 4.7294886e-07   0.46834906 5.7281635e-07   0.48100727 6.9494928e-07    0.4936655 8.453474e-07   0.50632376 1.0320586e-06   0.51898204 1.2654454e-06   0.53164037 1.5597342e-06   0.54429877 1.9339876e-06   0.55695726 2.4129923e-06   0.56961586 3.0273376e-06   0.58227458 3.809658e-06    0.5949334 4.7806085e-06    0.6075922 5.9138281e-06   0.62025077 7.0717902e-06   0.63290897 7.9445577e-06   0.64556703 8.104886e-06    0.6582251 7.2807522e-06   0.67088354 5.6860517e-06   0.68354275 3.9140956e-06   0.69620245 2.4650835e-06   0.70886204 1.4857882e-06   0.72152119 8.8817342e-07   0.73417991 5.3761793e-07   0.74683836 3.325577e-07   0.75949665 2.1073454e-07   0.77215486 1.3667559e-07   0.78481302 9.0512971e-08   0.79747116 6.1029802e-08   0.81012928 4.1771624e-08    0.8227874 2.893662e-08   0.83544552 2.0230115e-08   0.84810363 1.4233661e-08   0.86076175 1.005043e-08   0.87341986 7.101373e-09   0.88607798 5.0053267e-09    0.8987361 3.5069207e-09   0.91139422  2.43229e-09   0.92405234 1.6609025e-09   0.93671063 1.1094543e-09   0.94936689 7.1817299e-10   0.96202632 4.4419222e-10   0.97468441 2.5665848e-10   0.98733935 1.3310812e-10            1 5.685977e-11 
480 0.00073212491 3.1508374e-07            0 3.9680646e-06 0.00012706544 8.0852378e-06 8.0852068e-06    3.7431358            0            0  0.012658065 1.0476717e-11   0.02531613 3.2094533e-11  0.037974195 5.3098405e-11   0.05063226 6.5615972e-11  0.063290325 6.5625621e-11   0.07594839 5.3040429e-11  0.088606456 3.1753846e-11   0.10126452 9.8934821e-12   0.11392259 6.5522589e-14   0.12658065 1.9617485e-11   0.13923872 9.1090551e-11   0.15189678 2.4270914e-10   0.16455485 5.0893789e-10   0.17721291 9.3117948e-10   0.18987098 1.5585945e-09   0.20252904 2.4490767e-09   0.21518711 3.6704165e-09   0.22784517 5.3016972e-09   0.24050324 7.4349786e-09    0.2531613 1.0177343e-08   0.26581936 1.3653396e-08   0.27847743 1.800835e-08   0.29113549 2.341185e-08   0.30379356 3.0062761e-08   0.31645163 3.8195201e-08   0.32910969 4.8086198e-08   0.34176776 6.0065504e-08   0.35442582 7.4528248e-08   0.36708389 9.1951407e-08   0.37974196 1.1291543e-07   0.39240003 1.3813287e-07    0.4050581 1.6848671e-07   0.41771617 2.0508212e-07   0.43037425 2.4931709e-07   0.44303233 3.0298006e-07   0.45569042 3.6838614e-07   0.46834852 4.4856989e-07   0.48100663 5.4756363e-07   0.49366476 6.7081437e-07   0.50632291 8.2578855e-07   0.51898109 1.022466e-06   0.53163933 1.2750044e-06   0.54429765 1.6032693e-06   0.55695608 2.0347839e-06   0.56961467 2.6066564e-06   0.58227346 3.3646566e-06   0.59493245 4.3516091e-06   0.60759154 5.5676407e-06   0.62025041 6.8796442e-06   0.63290876 7.9098832e-06   0.64556682 8.0852378e-06   0.65822485 7.0480349e-06   0.67088343 5.1621648e-06   0.68354299 3.255145e-06   0.69620294 1.8715601e-06    0.7088625 1.0432551e-06   0.72152148 5.8727752e-07   0.73418004 3.4014046e-07   0.74683836 2.0374895e-07   0.75949657 1.2609708e-07   0.77215471 8.0351843e-08   0.78481282 5.2503057e-08   0.79747091 3.5034734e-08   0.81012899 2.3783715e-08   0.82278706 1.6368117e-08   0.83544514 1.1382518e-08   0.84810321 7.9736422e-09   0.86076127 5.6097595e-09   0.87341934 3.9515947e-09   0.88607741 2.7780001e-09   0.89873548 1.9420249e-09   0.91139354 1.344314e-09   0.92405161 9.1640568e-10   0.93670967 6.1120983e-10   0.94936774 3.9506249e-10    0.9620258 2.4403377e-10   0.97468387 1.4080848e-10   0.98734193 7.2871214e-11            1 3.1052682e-11 
520 0.0007078575 2.9528174e-07            0 2.8688586e-06 0.00015091739 8.0567518e-06 8.0567356e-06    3.7479037            0            0  0.012658048 7.6065791e-12  0.025316096 2.3290059e-11  0.037974143 3.8508825e-11  0.050632191 4.7550388e-11  0.063290239 4.7470919e-11  0.075948287 3.8287322e-11  0.088606334 2.282346e-11   0.10126438 7.0129577e-12   0.11392243 4.9753434e-14   0.12658048 1.4562476e-11   0.13923853 6.7042917e-11   0.15189657 1.7813333e-10   0.16455462 3.7308042e-10   0.17721267 6.8226848e-10   0.18987072 1.1418506e-09   0.20252876 1.7945027e-09   0.21518681 2.6903277e-09   0.22784486 3.887944e-09   0.24050291 5.4558058e-09   0.25316095 7.4738123e-09     0.265819 1.0035286e-08   0.27847705 1.324942e-08    0.2911351 1.7244335e-08   0.30379314 2.2170911e-08   0.31645119 2.8207659e-08   0.32910924 3.556693e-08   0.34176729 4.4502915e-08   0.35442534 5.5322051e-08   0.36708338 6.839665e-08   0.37974143 8.4182954e-08   0.39239949 1.0324528e-07   0.40505754 1.2628863e-07   0.41771559 1.5420338e-07   0.43037365  1.88127e-07   0.44303171 2.2953073e-07   0.45568978 2.8034292e-07   0.46834785 3.4312726e-07   0.48100593 4.2134689e-07   0.49366403 5.1976889e-07   0.50632215 6.4506098e-07   0.51898031 8.0643931e-07   0.53163851 1.0173838e-06   0.54429679 1.297622e-06    0.5569552 1.6760807e-06   0.56961378 2.1948591e-06   0.58227261 2.9121635e-06   0.59493174 3.8959076e-06   0.60759105 5.1831647e-06   0.62025015 6.6594939e-06   0.63290857 7.8720887e-06   0.64556662 8.0567518e-06   0.65822462 6.7528592e-06   0.67088348 4.5568996e-06   0.68354358 2.5792193e-06   0.69620385 1.3356179e-06   0.70886337 6.8555487e-07   0.72152219 3.6380344e-07   0.73418061 2.0221118e-07   0.74683883 1.1766962e-07   0.75949697 7.1324081e-08   0.77215507 4.4758455e-08   0.78481314 2.8910284e-08    0.7974712 1.9120939e-08   0.81012926 1.2890307e-08   0.82278732 8.8219775e-09   0.83544537 6.1072637e-09   0.84810342 4.2624053e-09   0.86076147 2.9895201e-09   0.87341952 2.1003898e-09   0.88607757 1.4733191e-09   0.89873562  1.02799e-09   0.91139366 7.1041077e-10   0.92405171 4.8356471e-10   0.93670976 3.2208901e-10   0.94936781 2.0792728e-10   0.96202586 1.2828427e-10    0.9746839 7.3927654e-11   0.98734195 3.8201494e-11            1 1.6240781e-11 
560 0.00067906083 2.6515134e-07            0 2.0210693e-06 0.00017997864 8.0153948e-06 8.0153868e-06    3.7535842            0            0   0.01265803 5.3836853e-12   0.02531606 1.6474774e-11   0.03797409 2.7222176e-11   0.05063212 3.3584171e-11   0.06329015 3.3442836e-11   0.07594818 2.690454e-11  0.088606211 1.5954652e-11   0.10126424 4.821529e-12   0.11392227 4.667909e-14    0.1265803 1.0579017e-11   0.13923833 4.819924e-11   0.15189636 1.2763043e-10   0.16455439 2.6690656e-10   0.17721242 4.8776807e-10   0.18987045 8.1613338e-10   0.20252848 1.2826643e-09   0.21518651 1.9234468e-09   0.22784454 2.7808138e-09   0.24050257 3.9043468e-09    0.2531606 5.3521026e-09   0.26581863 7.1921265e-09   0.27847666 9.5043331e-09   0.29113469 1.2382863e-08   0.30379272 1.593906e-08   0.31645075 2.0305256e-08   0.32910877 2.5639645e-08    0.3417668 3.213258e-08   0.35442483 4.0014822e-08   0.36708287 4.9568424e-08    0.3797409 6.1141257e-08   0.39239893 7.5166599e-08   0.40505696 9.2189879e-08     0.417715 1.1290566e-07   0.43037303 1.3820945e-07   0.44303107 1.6927148e-07   0.45568912 2.0764332e-07   0.46834716 2.5541523e-07   0.48100522 3.1545442e-07   0.49366329 3.9177704e-07   0.50632138 4.9010846e-07    0.5189795 6.1860862e-07   0.53163767 7.8956179e-07   0.54429591 1.0216648e-06   0.55695427 1.3438027e-06   0.56961283 1.8010362e-06   0.58227169 2.4621302e-06   0.59493095 3.4214199e-06   0.60759053 4.7636839e-06    0.6202499 6.412166e-06    0.6329084 7.8329894e-06   0.64556643 8.0153948e-06   0.65822442 6.3847318e-06   0.67088368 3.8814419e-06    0.6835444 1.9248523e-06   0.69620487 8.8630648e-07   0.70886424 4.1811372e-07   0.72152285 2.0972838e-07   0.73418113 1.1227276e-07   0.74683928 6.3673644e-08   0.75949736 3.7899686e-08   0.77215542 2.3470484e-08   0.78481346 1.5010394e-08    0.7974715 9.8524777e-09   0.81012954 6.6025573e-09   0.82278757  4.49729e-09    0.8354456 3.1014021e-09   0.84810364 2.1576903e-09   0.86076167 1.5093411e-09    0.8734197 1.0580729e-09   0.88607773 7.4076827e-10   0.89873576 5.1600593e-10   0.91139379 3.5607538e-10   0.92405182 2.4205875e-10   0.93670985 1.6103542e-10   0.94936788 1.0383939e-10   0.96202591 6.3993337e-11   0.97468394 3.6833281e-11   0.98734197 1.9004727e-11            1 8.0609994e-12 
600 0.00066357194 2.5151159e-07            0 1.428069e-06 0.00021168042 7.9618392e-06 7.9618352e-06    3.7597179            0            0  0.012658014 3.8229164e-12  0.025316028 1.1692257e-11  0.037974042 1.9307057e-11  0.050632056 2.379701e-11   0.06329007 2.3619946e-11  0.075948082 1.8947825e-11  0.088606096 1.1170232e-11   0.10126411 3.3126064e-12   0.11392213 4.5139549e-14   0.12658014 7.7157659e-12   0.13923815 3.4776946e-11   0.15189617 9.1761601e-11   0.16455418 1.9158767e-10   0.17721219 3.4985054e-10   0.18987021 5.8517356e-10   0.20252822 9.1962972e-10   0.21518624 1.3792509e-09   0.22784425 1.994646e-09   0.24050226 2.8017549e-09   0.25316028 3.8427762e-09   0.26581829 5.1673145e-09    0.2784763 6.8338127e-09   0.29113432 8.9113523e-09   0.30379233 1.1481937e-08   0.31645035 1.4643411e-08   0.32910836 1.8513226e-08   0.34176637 2.3233345e-08   0.35442439 2.8976689e-08    0.3670824 3.5955699e-08   0.37974042 4.4433837e-08   0.39239843 5.4741217e-08   0.40505645 6.729611e-08   0.41771447 8.2634962e-08   0.43037249 1.014549e-07   0.44303051 1.2467498e-07   0.45568853 1.5352591e-07   0.46834656 1.8968473e-07    0.4810046 2.3548241e-07   0.49366264 2.9423316e-07   0.50632071 3.7074104e-07    0.5189788 4.7203389e-07   0.53163693 6.0896225e-07   0.54429513 7.9861315e-07   0.55695344 1.068604e-06   0.56961196 1.4646727e-06   0.58227083 2.0626664e-06    0.5949302 2.9805202e-06   0.60759004 4.3554691e-06    0.6202497 6.1657926e-06   0.63290828 7.7988577e-06    0.6455663 7.9618392e-06   0.65822429 5.9794004e-06   0.67088403 3.2243868e-06   0.68354534 1.3829729e-06   0.69620584 5.6657558e-07   0.70886496 2.4756269e-07   0.72152339 1.1833051e-07   0.73418157 6.1404425e-08   0.74683965 3.4104258e-08   0.75949769 2.0005077e-08   0.77215572 1.2258371e-08   0.78481375 7.7781158e-09   0.79747177 5.0746094e-09   0.81012978 3.3846563e-09    0.8227878 2.2967515e-09   0.83544582 1.5790328e-09   0.84810383 1.0957878e-09   0.86076185 7.6490776e-10   0.87341986 5.352557e-10   0.88607787 3.7416316e-10   0.89873589 2.6028606e-10    0.9113939 1.7939912e-10   0.92405192 1.218231e-10   0.93670993 8.0963345e-11   0.94936794 5.2155425e-11   0.96202596 3.2108917e-11   0.97468397 1.8459852e-11   0.98734198 9.5105087e-12            1 4.0242849e-12 
640 0.00064513081 2.2672172e-07            0 1.0095333e-06 0.00024534479 7.8951331e-06 7.8951311e-06    3.7662683            0            0  0.012658006 2.7172203e-12  0.025316011 8.3061516e-12  0.037974017 1.3706829e-11  0.050632023  1.68774e-11  0.063290029 1.6683421e-11  0.075948051 1.3340718e-11  0.088606064 7.8127514e-12   0.10126404 2.2678103e-12   0.11392204 4.2849968e-14   0.12658005 5.6329545e-12   0.13923806 2.5115932e-11   0.15189607 6.6032252e-11   0.16455408 1.3763995e-10   0.17721209 2.5112994e-10   0.18987009 4.1988518e-10    0.2025281 6.5979344e-10   0.21518611 9.8962604e-10   0.22784411 1.4314987e-09   0.24050211 2.0114359e-09   0.25316012 2.7600661e-09   0.26581812 3.7134861e-09   0.27847612 4.9143411e-09   0.29113412 6.4131889e-09   0.30379212 8.270235e-09   0.31645012 1.0557559e-08   0.32910812 1.3361999e-08   0.34176612 1.6788924e-08   0.35442412 2.0967216e-08   0.36708212 2.605592e-08   0.37974012 3.2253233e-08   0.39239811 3.9808793e-08   0.40505611 4.9040708e-08   0.41771411 6.0359523e-08   0.43037211 7.4302463e-08   0.44303011 9.1583265e-08   0.45568812 1.1316614e-07   0.46834613 1.4037822e-07   0.48100414 1.7508577e-07   0.49366216 2.1997723e-07    0.5063202 2.7900825e-07   0.51897826 3.5809891e-07   0.53163635 4.6659845e-07   0.54429451 6.1968425e-07   0.55695277 8.4289488e-07   0.56961124 1.180845e-06   0.58227008 1.7131698e-06   0.59492953 2.5775714e-06   0.60758963 3.9659632e-06   0.62024957 5.9274124e-06   0.63290821 7.7719876e-06   0.64556622 7.8951331e-06   0.65822424 5.5501125e-06    0.6708845 2.6133313e-06   0.68354631 9.587238e-07   0.69620663  3.50591e-07   0.70886545 1.4297975e-07   0.72152372 6.5557927e-08   0.73418182 3.3139325e-08   0.74683986 1.8088441e-08   0.75949788  1.04831e-08   0.77215589 6.3679492e-09    0.7848139 4.0144305e-09   0.79747191 2.6061387e-09   0.81012991 1.7315073e-09   0.82278792 1.1713322e-09   0.83544592 8.0328072e-10   0.84810393 5.5629425e-10   0.86076193 3.8764648e-10   0.87341993 2.7086309e-10   0.88607794 1.8910294e-10   0.89873594 1.314023e-10   0.91139395 9.0476412e-11   0.92405195 6.138202e-11   0.93670995 4.0757655e-11     0.949368 2.6231423e-11   0.96202597 1.6133149e-11   0.97468398 9.2641902e-12   0.98734206 4.7651366e-12            1 2.0108608e-12 
680 0.00063434316 1.9951025e-07            0 7.4510238e-07 0.00027562316 7.8262556e-06 7.8262545e-06    3.7722837            0            0  0.012657993 2.0156215e-12  0.025315986 6.158773e-12  0.037973979 1.0157703e-11  0.050631973 1.2495301e-11  0.063289966 1.229784e-11  0.075947959 9.8035049e-12  0.088605952 5.7041723e-12   0.10126395 1.6212278e-12   0.11392194 3.992179e-14   0.12657993 4.2740953e-12   0.13923792 1.8884309e-11   0.15189592 4.9497286e-11   0.16455391 1.0302772e-10    0.1772119 1.8784203e-10    0.1898699 3.1395661e-10   0.20252789 4.9327755e-10   0.21518588 7.3989159e-10   0.22784387 1.0704209e-09   0.24050187 1.5044583e-09   0.25315986 2.0651055e-09   0.26581785 2.7796422e-09   0.27847585 3.6803662e-09   0.29113384 4.8056557e-09   0.30379183 6.2013248e-09   0.31644982 7.922368e-09   0.32910782 1.0035227e-08   0.34176581 1.2620765e-08    0.3544238 1.577821e-08   0.36708179 1.9630443e-08   0.37973979 2.4331167e-08   0.39239778 3.0074771e-08   0.40505577 3.7110068e-08   0.41771377 4.5759746e-08   0.43037176 5.6448366e-08   0.44302976 6.9743424e-08   0.45568776 8.6416868e-08   0.46834576 1.0753967e-07   0.48100377 1.3463174e-07   0.49366178 1.6990515e-07    0.5063198  2.16654e-07   0.51897785 2.7989695e-07   0.53163592 3.6770466e-07   0.54429405 4.9350163e-07   0.55695228 6.8061789e-07   0.56961072 9.716008e-07   0.58226955 1.447027e-06   0.59492907 2.258379e-06   0.60758939 3.6455488e-06   0.62024956 5.7307161e-06   0.63290822 7.7557591e-06   0.64556622 7.8262556e-06   0.65822427 5.1676725e-06   0.67088497 2.1337077e-06   0.68354711 6.7799251e-07   0.69620722 2.2538995e-07   0.70886585 8.7025866e-08   0.72152404 3.8643982e-08   0.73418209 1.9149811e-08   0.74684011 1.0316772e-08   0.75949812 5.9252983e-09   0.77215611 3.5760174e-09   0.78481411 2.2435134e-09   0.79747211 1.4511208e-09    0.8101301 9.6135342e-10   0.82278809 6.488538e-10   0.83544609 4.4415185e-10   0.84810408 3.0712044e-10   0.86076207 2.137413e-10   0.87342007 1.4918784e-10   0.88607806 1.0405792e-10   0.89873605 7.2246799e-11   0.91139405 4.9707342e-11   0.92405204 3.369877e-11   0.93671003 2.2359806e-11   0.94936803 1.4379796e-11   0.96202602 8.8362046e-12   0.97468401 5.0684125e-12   0.98734201 2.6028794e-12            1   1.0953e-12 
720 0.00059138793 1.675377e-07            0 5.2858154e-07  0.000292146 7.7461712e-06 7.7461707e-06    3.7792993            0            0  0.012657622 1.4404781e-12  0.025315256 4.4014328e-12  0.037972902 7.2603286e-12  0.050630551 8.9204572e-12  0.063288166 8.759451e-12  0.075944818 7.0917201e-12  0.088601932 4.2954991e-12    0.1012611 1.2498294e-12   0.11391875 8.0964503e-14   0.12657627 3.399313e-12   0.13923385 1.4031655e-11   0.15189148 3.6167292e-11   0.16454916 7.4773131e-11    0.1772069 1.3586557e-10   0.18986469 2.2665548e-10   0.20252254 3.5572783e-10   0.21518045 5.3325445e-10   0.22783841 7.712571e-10   0.24049643 1.0839344e-09   0.25315449 1.4880567e-09   0.26581261  2.00347e-09   0.27847077 2.6537229e-09   0.29112898 3.4668598e-09   0.30378722 4.4764477e-09   0.31644549 5.7228822e-09   0.32910379 7.2551093e-09   0.34176211 9.1328789e-09   0.35442045 1.1429752e-08    0.3670788 1.4237144e-08   0.37973716 1.7669839e-08   0.39239551 2.1873607e-08   0.40505387 2.7035877e-08   0.41771221 3.3400948e-08   0.43037054 4.1292028e-08   0.44302886 5.1143848e-08   0.45568717 6.3551953e-08   0.46834545 7.9349346e-08   0.48100372 9.9729385e-08   0.49366197 1.2644729e-07   0.50632021 1.6214998e-07   0.51897846 2.109444e-07   0.53163672 2.795618e-07   0.54429505 3.7948815e-07   0.55695349 5.3137392e-07   0.56961219 7.7463424e-07   0.58227122 1.1887421e-06   0.59493042 1.9367307e-06   0.60758986 3.3111707e-06   0.62024958 5.5270438e-06   0.63290816 7.7461712e-06   0.64556625 7.7384965e-06   0.65822438 4.7432535e-06   0.67088539 1.6659404e-06   0.68354725 4.4784641e-07   0.69620836 1.3433141e-07   0.70886914 4.8997984e-08   0.72152827 2.1061032e-08   0.73418666 1.0231216e-08   0.74684477 5.4410897e-09   0.75950279 3.0974181e-09   0.77216074  1.85755e-09   0.78481868 1.1599707e-09   0.79747659  7.47651e-10   0.81013449 4.9398275e-10   0.82279237 3.3271414e-10   0.83545025 2.2737902e-10    0.8481081 1.570275e-10   0.86076595 1.0917543e-10   0.87342378 7.614441e-11   0.88608161 5.307975e-11   0.89873942 3.6837599e-11   0.91139723 2.5338185e-11   0.92405502 1.7175422e-11   0.93671302 1.1403222e-11   0.94936829 7.2970951e-12   0.96202777 4.4938027e-12   0.97468547 2.5756156e-12   0.98733893 1.3668312e-12            1 5.5117453e-13 
760 0.0006014087 1.403306e-07            0 3.9984834e-07 0.00029264656 7.7447332e-06 7.7447329e-06     3.785104            0            0  0.012657961 1.0938875e-12  0.025315923 3.3397852e-12  0.037973886 5.5029031e-12   0.05063185 6.753645e-12  0.063289809 6.5709185e-12  0.075947698 5.2013383e-12  0.088605617 2.9813407e-12   0.10126368 8.0570902e-13   0.11392164 3.2108789e-14    0.1265796 2.4181395e-12   0.13923756 1.0506968e-11   0.15189553 2.7385284e-11   0.16455351 5.6853025e-11   0.17721149 1.0351573e-10   0.18986947 1.7289797e-10   0.20252746 2.715811e-10   0.21518546 4.0737088e-10   0.22784345 5.8950283e-10   0.24050145 8.2889512e-10   0.25315946 1.1384622e-09   0.26581747 1.5335072e-09   0.27847548 2.0322152e-09   0.29113349 2.656282e-09    0.3037915 3.4317181e-09   0.31644952 4.3898902e-09   0.32910754 5.5688814e-09   0.34176555 7.0152873e-09   0.35442357 8.7866123e-09   0.36708159 1.0954506e-08    0.3797396 1.3609187e-08   0.39239762 1.6865584e-08   0.40505563 2.0871969e-08   0.41771364 2.5822317e-08   0.43037165 3.1974327e-08   0.44302966 3.9676217e-08   0.45568767 4.9407546e-08   0.46834567 6.1843184e-08   0.48100368 7.7956723e-08   0.49366169 9.9191466e-08    0.5063197 1.2774491e-07   0.51897773 1.6707333e-07   0.53163577 2.2292395e-07   0.54429386 3.0529627e-07   0.55695203 4.3264155e-07   0.56961038 6.4143487e-07   0.58226909 1.0088884e-06   0.59492856 1.7045124e-06   0.60758915 3.0621056e-06   0.62024968 5.3782894e-06   0.63290834 7.7447332e-06   0.64556637 7.6614575e-06   0.65822455 4.4132744e-06   0.67088604 1.3458685e-06   0.68354835 3.1515438e-07   0.69620782 8.7289109e-08   0.70886629 3.0504037e-08   0.72152444 1.2797254e-08   0.73418249 6.1258547e-09    0.7468405 3.2268854e-09    0.7594985 1.8250208e-09   0.77215649 1.0894077e-09   0.78481448 6.7796469e-10   0.79747247 4.3583928e-10   0.81013046 2.8737919e-10   0.82278844 1.9324435e-10   0.83544643 1.3188717e-10   0.84810441 9.0977109e-11   0.86076239 6.3189433e-11   0.87342037 4.4030664e-11   0.88607835 3.0666049e-11   0.89873633 2.1262991e-11   0.91139431 1.4611031e-11   0.92405228 9.8931083e-12   0.93671027 6.5554279e-12   0.94936807 4.2094879e-12   0.96202616 2.5815426e-12   0.97468413 1.4767943e-12    0.9873418 7.5563715e-13            1 3.1537921e-13 
800 0.00061091835 1.1381926e-07            0 2.9766554e-07 0.00029143293 7.7483836e-06 7.7483835e-06    3.7912683            0            0  0.012657757 8.1980435e-13  0.025315532 2.502897e-12  0.037973325 4.1240342e-12  0.050631118 5.0524484e-12  0.063288863 4.8970874e-12   0.07594592 3.9253822e-12  0.088603228 2.3367859e-12   0.10126184 6.5920909e-13   0.11391955 6.1020461e-14   0.12657739 1.9798389e-12   0.13923527 8.1021678e-12    0.1518932 2.0831384e-11   0.16455118 4.3026079e-11    0.1772092 7.8154062e-11   0.18986727 1.3037882e-10   0.20252538 2.0466594e-10   0.21518353 3.069108e-10   0.22784171 4.4409644e-10   0.24049993 6.2448889e-10   0.25315817 8.5787749e-10   0.26581643 1.1558784e-09    0.2784747 1.5323164e-09   0.29113299 2.0037105e-09   0.30379128 2.5898995e-09   0.31644957 3.3148515e-09   0.32910786 4.2077247e-09   0.34176614 5.3042716e-09    0.3544244 6.6487175e-09   0.36708264 8.2963063e-09   0.37974087 1.0316789e-08   0.39239907 1.2799286e-08   0.40505724 1.5859153e-08   0.41771538 1.9647851e-08   0.43037349 2.4367406e-08   0.44303158 3.0292061e-08   0.45568963 3.7801453e-08   0.46834766 4.7433041e-08   0.48100566 5.9967531e-08   0.49366363 7.6571294e-08   0.50632158 9.9037345e-08   0.51897952 1.3022368e-07   0.53163745 1.7495226e-07   0.54429539 2.4177859e-07   0.55695333 3.4690977e-07   0.56961124 5.2354878e-07   0.58226901 8.4554429e-07   0.59492724 1.4865528e-06    0.6075882 2.8216763e-06   0.62024958 5.2385409e-06   0.63290843 7.7483836e-06   0.64556655 7.5770433e-06   0.65822483 4.0859532e-06   0.67088671 1.0642118e-06   0.68354861 2.1527324e-07   0.69620686 5.4938729e-08   0.70886632 1.837765e-08   0.72152514 7.5250713e-09    0.7341835 3.5504675e-09   0.74684169 1.8531081e-09   0.75949981 1.0415729e-09   0.77215789 6.1904427e-10   0.78481596 3.8403741e-10   0.79747401 2.463136e-10   0.81013205 1.6213244e-10   0.82279008 1.0888391e-10   0.83544809 7.4241463e-11    0.8481061 5.117722e-11   0.86076409 3.5528897e-11   0.87342207 2.4749345e-11   0.88608004 1.7234826e-11   0.89873799 1.195037e-11   0.91139594 8.2132983e-12   0.92405387 5.5632304e-12   0.93671193 3.6915788e-12    0.9493682 2.3566862e-12   0.96202717 1.4499903e-12   0.97468501 8.2928421e-13   0.98734006 4.4339967e-13            1 1.7477571e-13 
840 0.00059622857 9.2664206e-08            0 2.2389644e-07 0.00028889317 7.7559873e-06 7.7559872e-06    3.7971866            0            0  0.012657873 6.1978617e-13  0.025315753 1.8914146e-12  0.037973641 3.1146208e-12  0.050631527 3.8113032e-12  0.063289395 3.6590603e-12  0.075947046 2.8836549e-12  0.088604763 1.641273e-12   0.10126287 4.3005248e-13   0.11392071 3.0672883e-14   0.12657864 1.4365871e-12   0.13923658 6.0861764e-12   0.15189453 1.5757378e-11    0.1645525 3.2622935e-11   0.17721049 5.9319791e-11   0.18986849 9.9015919e-11    0.2025265 1.5549179e-10   0.21518452 2.3323964e-10   0.22784255 3.3758545e-10   0.24050058 4.7483981e-10   0.25315863 6.5248528e-10   0.26581667 8.7941164e-10   0.27847472 1.1662132e-09   0.29113277 1.5255678e-09   0.30379081 1.972725e-09   0.31644885 2.5261394e-09   0.32910689 3.2083026e-09   0.34176492 4.0468466e-09   0.35442294 5.0760226e-09   0.36708095 6.3387115e-09   0.37973896 7.8891879e-09   0.39239695 9.7969813e-09   0.40505494 1.2152352e-08   0.41771291 1.5074194e-08   0.43037087 1.8721666e-08   0.44302883 2.3311696e-08   0.45568677 2.914598e-08   0.46834471 3.6653932e-08   0.48100264 4.6463158e-08   0.49366057 5.9517892e-08    0.5063185 7.7282484e-08   0.51897643 1.0211926e-07   0.53163437 1.3806746e-07   0.54429234 1.9242449e-07   0.55695036 2.7935623e-07   0.56960852 4.2887365e-07   0.58226708 7.1093527e-07   0.59492707 1.3010908e-06   0.60758903 2.6116524e-06   0.62025007 5.1208456e-06   0.63290865 7.7559873e-06    0.6455667 7.4950739e-06   0.65822501 3.7948466e-06   0.67088708 8.4278131e-07    0.6835497 1.4802379e-07   0.69620858 3.4948272e-08   0.70886705 1.1224686e-08   0.72152527 4.4950204e-09   0.73418335 2.0933043e-09   0.74684137 1.0836233e-09   0.75949936 6.0575266e-10   0.77215735 3.5866314e-10   0.78481533 2.2190696e-10   0.79747331 1.4204867e-10   0.81013129 9.3366533e-11   0.82278926 6.2634339e-11   0.83544722 4.267073e-11   0.84810519 2.9394521e-11   0.86076314 2.0394803e-11    0.8734211 1.4199238e-11   0.88607905 9.8823977e-12   0.89873699 6.8478351e-12   0.91139493 4.7025591e-12   0.92405287 3.1818641e-12   0.93671084 2.1068415e-12   0.94936828 1.3493544e-12   0.96202652 8.2647493e-13   0.97468442 4.7131489e-13   0.98734148 2.4137786e-13            1 9.8879151e-14 
880 0.00058745606 7.5469239e-08            0 1.6740644e-07 0.00028523167 7.7667504e-06 7.7667504e-06    3.8031453            0            0  0.012657793 4.6675614e-13  0.025315597 1.4246006e-12  0.037973412 2.3464619e-12  0.050631223 2.864013e-12  0.063289009 2.736373e-12  0.075946565 2.1651055e-12  0.088604175 1.2517778e-12   0.10126215 3.5696511e-13   0.11391989 4.8112062e-14   0.12657779 1.1720918e-12    0.1392357 4.6968792e-12   0.15189362 1.2010851e-11   0.16455157 2.4754569e-11   0.17720953 4.4920389e-11    0.1898675 7.4903521e-11   0.20252549 1.1756458e-10   0.21518349 1.7630558e-10    0.2278415 2.5516355e-10   0.24049952 3.5892679e-10   0.25315753 4.9327869e-10   0.26581556 6.6497944e-10   0.27847358 8.8209549e-10    0.2911316 1.1542925e-09   0.30378962 1.4932136e-09   0.31644763 1.9129712e-09   0.32910564 2.4307932e-09   0.34176364 3.0678831e-09   0.35442163 3.8505753e-09   0.36707962 4.8119079e-09   0.37973759 5.9937947e-09   0.39239556 7.4500639e-09   0.40505352 9.2507862e-09   0.41771147 1.1488544e-08   0.43036941 1.4287698e-08   0.44302735 1.7818403e-08   0.45568528 2.2318356e-08   0.46834321 2.8127611e-08   0.48100113 3.5746099e-08   0.49365906 4.5931044e-08   0.50631699 5.9866856e-08   0.51897492 7.9486372e-08   0.53163288 1.0813792e-07   0.54429087 1.5197902e-07   0.55694896 2.2325505e-07    0.5696073 3.4878937e-07   0.58226646 5.9411292e-07   0.59492769 1.1346752e-06   0.60758984 2.4180032e-06   0.62025043 5.0170969e-06   0.63290884 7.7667504e-06   0.64556688 7.4131304e-06   0.65822522 3.5246608e-06   0.67088736 6.6121162e-07    0.6835503 1.0059783e-07   0.69620985 2.1944451e-08   0.70886833 6.7642147e-09   0.72152651 2.6497999e-09   0.73418454 1.2185114e-09   0.74684252 6.258985e-10   0.75950048 3.4812706e-10   0.77215843 2.0543318e-10   0.78481637 1.2681433e-10    0.7974743 8.1053634e-11   0.81013223 5.3222617e-11   0.82279015 3.5682709e-11   0.83544807 2.4302115e-11   0.84810598 1.673963e-11   0.86076388 1.1615473e-11   0.87342178 8.0885938e-12   0.88607967 5.6311256e-12   0.89873756 3.9032667e-12   0.91139544 2.6813273e-12   0.92405331 1.8147344e-12   0.93671122 1.2021448e-12    0.9493686 7.6678728e-13   0.96202675 4.7030613e-13   0.97468458 2.6761659e-13   0.98734159 1.3618562e-13            1 5.5276957e-14 
920 0.00049896881 6.648084e-08            0 1.2556608e-07 0.00028086802 7.7793106e-06 7.7793105e-06    3.8089127            0            0  0.012657815 3.5264065e-13  0.025315643 1.0764331e-12  0.037973485 1.7733106e-12   0.05063132 2.1582147e-12  0.063289126 2.0495738e-12  0.075946708 1.6251721e-12  0.088604325 9.5056205e-13   0.10126224 2.9385544e-13   0.11391999 5.6366308e-14   0.12657796 9.4509367e-13   0.13923594 3.6151786e-12   0.15189393 9.1509226e-12   0.16455195 1.8794511e-11   0.17720999 3.4055378e-11   0.18986804 5.6749308e-11    0.2025261 8.9046434e-11   0.21518417 1.335295e-10   0.22784225 1.932659e-10   0.24050034 2.7189702e-10   0.25315843 3.7374913e-10   0.26581652 5.0397353e-10   0.27847461 6.6872376e-10   0.29113271 8.7538234e-10    0.3037908 1.1328539e-09   0.31644888 1.4519466e-09   0.32910696 1.8458751e-09   0.34176503 2.3309302e-09    0.3544231 2.9273807e-09   0.36708116 3.6607048e-09   0.37973921 4.5632928e-09   0.39239726 5.6768389e-09    0.4050553 7.0557561e-09   0.41771334 8.7721413e-09   0.43037137 1.0923145e-08    0.4430294 1.3642166e-08   0.45568742 1.7116322e-08   0.46834544 2.1614582e-08   0.48100347 2.7534525e-08   0.49366149 3.5482152e-08   0.50631953 4.6413023e-08   0.51897757 6.1903352e-08   0.53163564 8.4717874e-08   0.54429375 1.2002798e-07   0.55695197 1.7836026e-07   0.56961049 2.8353258e-07   0.58226987 4.9644357e-07   0.59493032 9.9064094e-07   0.60759046 2.2454999e-06   0.62025055  4.92944e-06   0.63290893 7.7793106e-06   0.64556704 7.3356604e-06   0.65822545 3.284617e-06   0.67088743 5.1896992e-07   0.68354911 6.8564656e-08   0.69620886 1.3822357e-08   0.70886741 4.0903821e-09   0.72152563 1.5684911e-09   0.73418371 7.1270201e-10   0.74684174 3.6347029e-10   0.75949975 2.0125215e-10   0.77215775 1.184148e-10   0.78481574 7.2960253e-11   0.79747373 4.6577971e-11    0.8101317 3.0564198e-11   0.82278967 2.048534e-11   0.83544763 1.3951374e-11   0.84810559 9.611579e-12   0.86076353 6.6715439e-12   0.87342147 4.6478016e-12    0.8860794 3.2372809e-12   0.89873732 2.2450739e-12   0.91139523  1.54296e-12   0.92405313 1.0446697e-12   0.93671106 6.9231261e-13   0.94936854 4.4017588e-13   0.96202667 2.701371e-13   0.97468452 1.5332092e-13   0.98734167 7.7437117e-14            1 3.1098299e-14 
960 0.00049021406 5.8999274e-08            0 9.4674657e-08 0.00027615661 7.7926079e-06 7.7926079e-06     3.814421            0            0  0.012657958 2.6718292e-13  0.025315927 8.1512578e-13  0.037973906 1.3416848e-12  0.050631878 1.6311911e-12  0.063289829 1.5244866e-12   0.07594763 1.1872495e-12  0.088605445 6.6005117e-13   0.10126344 1.6378151e-13   0.11392134 2.1702135e-14   0.12657943 6.3924649e-13   0.13923752 2.6587575e-12   0.15189563 6.8575476e-12   0.16455374 1.4180825e-11   0.17721187 2.5777596e-11      0.18987 4.3030771e-11   0.20252814 6.7593937e-11   0.21518629 1.0143638e-10   0.22784443 1.4689859e-10   0.24050258 2.0676108e-10   0.25316073 2.8433033e-10   0.26581887 3.8354699e-10   0.27847701 5.0912325e-10   0.29113515 6.6671883e-10   0.30379328 8.6316828e-10    0.3164514 1.1067782e-09   0.32910952 1.4077186e-09   0.34176763 1.7785461e-09   0.35442573 2.2349087e-09   0.36708383 2.796511e-09   0.37974192 3.4884514e-09       0.3924 4.3431059e-09   0.40505808 5.4028246e-09   0.41771615 6.7238662e-09   0.43037421 8.382258e-09   0.44303227 1.0482738e-08   0.45569033 1.3172775e-08   0.46834839 1.6665273e-08   0.48100644 2.1276516e-08   0.49366449 2.7491426e-08   0.50632255 3.6080435e-08   0.51898061 4.8327118e-08   0.53163869 6.6509544e-08   0.54429679 9.4958154e-08   0.55695495 1.4268634e-07   0.56961324 2.3073391e-07   0.58227176 4.1530438e-07   0.59492998 8.6654891e-07   0.60758987 2.092663e-06   0.62025059 4.8563505e-06   0.63290911 7.7926079e-06   0.64556726 7.264379e-06   0.65822574 3.0745178e-06   0.67088786 4.0896631e-07   0.68354805 4.7054086e-08   0.69620662 8.7701971e-09   0.70886501 2.4923559e-09   0.72152322 9.3612964e-10   0.73418135 4.2060637e-10   0.74683945 2.131047e-10   0.75949754 1.1752469e-10   0.77215562 6.8978315e-11    0.7848137 4.2434551e-11   0.79747178 2.7064737e-11   0.81012985 1.7749891e-11   0.82278791 1.1892938e-11   0.83544597 8.0980578e-12   0.84810403 5.578196e-12   0.86076208 3.871208e-12   0.87342013 2.6961689e-12   0.88607816 1.8771271e-12    0.8987362 1.3009692e-12   0.91139423 8.9329914e-13   0.92405225 6.0407554e-13   0.93671028 3.9945101e-13   0.94936804 2.5515847e-13   0.96202619 1.5556881e-13   0.97468418 8.8036042e-14   0.98734173 4.4596645e-14            1 1.7678835e-14 
1000 0.00062855152 7.8507489e-08            0  7.06644e-08 0.00027109141 7.8066224e-06 7.8066224e-06    3.8199376            0            0  0.012657858 2.0100883e-13  0.025315739 6.1330031e-13  0.037973642 1.0095585e-12  0.050631528 1.2226684e-12  0.063289371 1.1334912e-12  0.075946899 8.9238635e-13  0.088604442 5.2125797e-13   0.10126233 1.6057515e-13   0.11392006 4.4872682e-14   0.12657822 5.3106508e-13   0.13923639 2.0328551e-12   0.15189457 5.1741566e-12   0.16455277 1.0667925e-11   0.17721098 1.9380879e-11   0.18986919 3.2356283e-11    0.2025274 5.0841868e-11   0.21518561 7.6324011e-11   0.22784381 1.1057008e-10     0.240502 1.556808e-10   0.25316018 2.1415617e-10   0.26581834 2.889781e-10   0.27847647 3.8371571e-10   0.29113459 5.0266069e-10   0.30379267 6.5100124e-10   0.31645074 8.3505163e-10   0.32910878 1.062553e-09   0.34176679 1.3430776e-09   0.35442478 1.688573e-09   0.36708275 2.1141104e-09   0.37974069 2.6389214e-09   0.39239861 3.287865e-09   0.40505651 4.0935312e-09    0.4177144 5.0993193e-09   0.43037227 6.3640426e-09   0.44303013 7.9689799e-09   0.45568798 1.0028987e-08   0.46834582 1.2710581e-08   0.48100365 1.6262335e-08   0.49366148 2.1067542e-08   0.50631931 2.7739692e-08   0.51897714 3.7310872e-08   0.53163497 5.163433e-08   0.54429281 7.429023e-08   0.55695067 1.1289946e-07   0.56960849 1.8582302e-07   0.58226589 3.4434821e-07   0.59492376 7.5383261e-07   0.60758858 1.9500006e-06   0.62025094 4.7926003e-06    0.6329095 7.8066224e-06    0.6455676 7.1964715e-06   0.65822607 2.8822312e-06   0.67088896 3.1996601e-07   0.68355004 3.1868379e-08   0.69620715 5.4676719e-09   0.70886561 1.4891789e-09    0.7215239 5.4765833e-10   0.73418205 2.4336399e-10   0.74684015 1.225487e-10   0.75949824 6.7347324e-11   0.77215632 3.9450334e-11    0.7848144 2.4245379e-11   0.79747248 1.5458463e-11   0.81013055 1.0139235e-11   0.82278861 6.7964685e-12   0.83544667 4.630864e-12   0.84810472 3.1925993e-12   0.86076276 2.2178978e-12    0.8734208 1.546557e-12   0.88607882 1.0782784e-12   0.89873684 7.4859681e-13   0.91139484 5.1510687e-13   0.92405283 3.4926038e-13   0.93671086 2.321463e-13   0.94936832 1.4640633e-13   0.96202657 9.0213714e-14   0.97468448 5.1112019e-14   0.98734152 2.6862202e-14            1 9.8487919e-15 
1040 0.00054268011 5.5222188e-08            0 5.2507594e-08 0.00026598607 7.8204161e-06 7.8204161e-06    3.8253178            0            0  0.012657855 1.5076371e-13  0.025315719 4.6043554e-13  0.037973591 7.5898916e-13  0.050631455 9.1317065e-13  0.063289305 8.4413284e-13  0.075947057 6.6261048e-13  0.088604807 3.8167883e-13   0.10126264 1.2527723e-13   0.11392045 3.8184334e-14   0.12657842 4.2734962e-13    0.1392364 1.5672605e-12   0.15189437 3.9325916e-12   0.16455236 8.0561788e-12   0.17721034 1.4586443e-11   0.18986833 2.4304689e-11   0.20252631 3.8146345e-11    0.2151843 5.7226899e-11   0.22784228 8.2874003e-11   0.24050026 1.1666741e-10   0.25315824 1.6048876e-10   0.26581621 2.1658459e-10   0.27847417 2.8764646e-10   0.29113214 3.7691367e-10   0.30379009 4.8830671e-10   0.31644805 6.2660157e-10   0.32910599 7.976608e-10   0.34176394 1.0087424e-09   0.35442187 1.2689186e-09   0.36707981 1.5896505e-09   0.37973774 1.9855886e-09   0.39239567 2.4757054e-09    0.4050536 3.0849252e-09   0.41771153 3.8465178e-09   0.43036946 4.8056869e-09    0.4430274 6.0250907e-09   0.45568533 7.5935798e-09   0.46834326 9.6404857e-09    0.4810012 1.2359766e-08   0.49365915 1.6052147e-08   0.50631709 2.1202433e-08   0.51897505 2.8633889e-08   0.53163302 3.9841848e-08   0.54429102 5.7761476e-08   0.55694908 8.878225e-08   0.56960734 1.4879791e-07   0.58226643 2.8428978e-07   0.59492848 6.5508205e-07   0.60759133 1.8206001e-06   0.62025152 4.7384909e-06    0.6329097 7.8204161e-06   0.64556772 7.1342993e-06   0.65822612 2.7115028e-06   0.67088834 2.5038612e-07   0.68355112 2.1511508e-08   0.69620982 3.3816635e-09   0.70886793 8.8151532e-10   0.72152593 3.1743875e-10    0.7341839 1.395983e-10   0.74684186 6.9925239e-11    0.7594998 3.8331908e-11   0.77215775 2.243656e-11   0.78481569 1.3794841e-11   0.79747363 8.8068359e-12   0.81013157 5.7879221e-12    0.8227895 3.8895542e-12   0.83544743 2.6580261e-12   0.84810536 1.838435e-12   0.86076328 1.2814962e-12    0.8734212 8.9661764e-13   0.88607912  6.27105e-13   0.89873703 4.3652639e-13   0.91139494 3.0091071e-13   0.92405284 2.0411886e-13   0.93671075 1.3532054e-13   0.94936851 8.543967e-14   0.96202647 5.2183201e-14   0.97468434 2.9179044e-14   0.98734198 1.404039e-14            1 5.4377899e-15 
1080 0.00041338178 4.0145645e-08            0 3.9289032e-08 0.00026119233 7.8330316e-06 7.8330316e-06    3.8303481            0            0  0.012658019 1.1340504e-13  0.025316044 3.4616324e-13  0.037974075 5.7010115e-13  0.050632099 6.8532071e-13  0.063290114 6.1877587e-13  0.075948069 4.7479039e-13  0.088606019 2.5530625e-13   0.10126401 5.9073973e-14   0.11392199 1.1711304e-14    0.1265801 2.7073211e-13    0.1392382 1.1207244e-12   0.15189631 2.893073e-12   0.16455443 5.9894037e-12   0.17721254 1.0898673e-11   0.18987066 1.8210338e-11   0.20252877 2.8630478e-11   0.21518689 4.3001592e-11   0.22784501 6.232706e-11   0.24050312 8.780156e-11   0.25316124 1.2084916e-10   0.26581935 1.6317145e-10   0.27847747 2.1680876e-10   0.29113558 2.8421901e-10   0.30379368 3.6837978e-10   0.31645179 4.7292238e-10    0.3291099 6.0230925e-10     0.341768 7.620719e-10   0.35442611 9.5913371e-10   0.36708421 1.2022538e-09   0.37974232 1.5026464e-09   0.39240042 1.8748591e-09   0.40505853 2.3380404e-09   0.41771663 2.9178044e-09   0.43037474 3.6490374e-09   0.44303285 4.5802297e-09   0.45569096 5.7803599e-09   0.46834907 7.3502047e-09   0.48100719 9.4415437e-09   0.49366531 1.2290918e-08   0.50632343 1.6282222e-08   0.51898156 2.2073093e-08    0.5316397 3.0871093e-08   0.54429785 4.5082946e-08   0.55695606 7.0062056e-08   0.56961441 1.1954213e-07   0.58227321 2.3548885e-07   0.59493212 5.7116506e-07   0.60759143 1.7062521e-06   0.62025143 4.6939901e-06   0.63290974 7.8330316e-06   0.64556789 7.0802568e-06   0.65822635 2.5662597e-06   0.67088808 1.9795712e-07   0.68354775 1.4731075e-08   0.69620638 2.1191039e-09   0.70886457 5.2828257e-10   0.72152269 1.8633035e-10   0.73418079 8.1133791e-11   0.74683888 4.0442021e-11   0.75949697 2.2118086e-11   0.77215505 1.2934524e-11   0.78481313 7.9520095e-12   0.79747121 5.0786507e-12   0.81012929 3.3397714e-12   0.82278737 2.2458462e-12   0.83544544 1.5356262e-12   0.84810351 1.0625122e-12   0.86076157 7.4068986e-13   0.87341964 5.1808279e-13    0.8860777 3.6208994e-13   0.89873575 2.5174086e-13   0.91139381 1.732213e-13   0.92405186 1.1722165e-13   0.93670991 7.7398173e-14   0.94936788  4.92626e-14   0.96202596 2.9763539e-14   0.97468399 1.6571903e-14    0.9873419 8.0893772e-15            1 3.0445165e-15 
1120 0.00045411079 3.7300541e-08            0 2.8967926e-08 0.00025650537 7.845124e-06 7.845124e-06    3.8353882            0            0  0.012658084 8.4408878e-14  0.025316172 2.5789607e-13  0.037974263 4.2530755e-13   0.05063235 5.0719922e-13  0.063290432 4.5438326e-13  0.075948474 3.4658628e-13  0.088606511 1.8331488e-13   0.10126458 4.0751099e-14   0.11392263 9.464937e-15   0.12658078 2.0453122e-13   0.13923892 8.4021134e-13   0.15189706 2.161406e-12   0.16455519 4.4663433e-12   0.17721332 8.1182246e-12   0.18987145 1.3555097e-11   0.20252958 2.1301917e-11    0.2151877 3.1985427e-11   0.22784581 4.6352519e-11   0.24050392 6.5293059e-11   0.25316202 8.9868597e-11   0.26582012 1.2134853e-10   0.27847821 1.6125628e-10   0.29113629 2.1142873e-10   0.30379437 2.7409327e-10   0.31645244 3.5196915e-10    0.3291105 4.4840175e-10   0.34176856 5.6754287e-10   0.35442661 7.1459572e-10   0.36708466 8.9615245e-10   0.37974271 1.1206658e-09   0.39240075 1.3991197e-09   0.40505878 1.7459985e-09   0.41771682 2.1807179e-09   0.43037484 2.7297842e-09   0.44303287 3.4301385e-09   0.45569089 4.3344939e-09   0.46834892 5.5201406e-09   0.48100693 7.1039726e-09   0.49366495 9.2690881e-09   0.50632297 1.2314629e-08   0.51898098  1.67575e-08     0.531639 2.3557307e-08   0.54429701 3.4656359e-08   0.55695504 5.4471346e-08   0.56961304 9.4697866e-08   0.58227074 1.9272771e-07   0.59492813 4.9414804e-07   0.60759057 1.5976506e-06   0.62025165 4.6547768e-06   0.63291003 7.845124e-06   0.64556818 7.0304491e-06   0.65822663 2.4342726e-06   0.67088885 1.5551916e-07   0.68354789 9.9249228e-09   0.69620562 1.2970714e-09   0.70886374 3.0824841e-10   0.72152185 1.0646266e-10   0.73417995 4.5952566e-11   0.74683805 2.2838207e-11   0.75949615 1.2493757e-11   0.77215425 7.3232441e-12   0.78481235 4.5192035e-12   0.79747045 2.9001355e-12   0.81012855 1.9177562e-12   0.82278666 1.2973892e-12   0.83544476 8.9266094e-13   0.84810287 6.2149261e-13   0.86076097 4.3583272e-13   0.87341908 3.0649824e-13   0.88607718 2.151946e-13   0.89873528 1.5012535e-13   0.91139338 1.0349492e-13   0.92405149 7.0032745e-14   0.93670959 4.607899e-14   0.94936764 2.9429962e-14   0.96202576 1.7499112e-14   0.97468385 9.5807487e-15   0.98734186 4.659065e-15            1 1.6550401e-15 
1160 0.00050023089 5.109831e-08            0 2.1459462e-08 0.00025234316 7.8556615e-06 7.8556615e-06       3.8401            0            0  0.012657936  6.31383e-14  0.025315875 1.9302814e-13  0.037973816 3.1855341e-13  0.050631754 3.7690305e-13  0.063289688 3.3440215e-13  0.075947598 2.5646289e-13  0.088605505 1.3940196e-13   0.10126342 3.9304801e-14   0.11392134 1.5925129e-14   0.12657932 1.6494212e-13   0.13923729 6.3298147e-13   0.15189527 1.6096581e-12   0.16455324 3.3172731e-12   0.17721121 6.0267439e-12   0.18986918 1.0065015e-11   0.20252714 1.5824148e-11   0.21518511 2.3772486e-11   0.22784307 3.4468476e-11   0.24050102 4.8577891e-11   0.25315898 6.6895401e-11   0.26581693 9.0371911e-11   0.27847489 1.2014941e-10   0.29113284 1.5760583e-10   0.30379078 2.0441349e-10   0.31644873 2.6261571e-10   0.32910668 3.3472873e-10   0.34176462 4.2387859e-10   0.35442256 5.3398749e-10   0.36708051 6.700308e-10   0.37973845 8.3839708e-10    0.3923964 1.0474004e-09   0.40505434 1.3080232e-09   0.41771229 1.6350148e-09   0.43037024 2.0485541e-09   0.44302819 2.576833e-09   0.45568614 3.2601941e-09    0.4683441 4.157985e-09   0.48100206 5.3603086e-09   0.49366001 7.0089633e-09   0.50631798 9.3370523e-09   0.51897594 1.2750629e-08   0.53163391 1.8011357e-08    0.5442919 2.6683772e-08   0.55694991 4.2401807e-08   0.56960805 7.5089361e-08   0.58226685 1.5792864e-07   0.59492917 4.2878525e-07   0.60759235 1.5015551e-06   0.62025222 4.6222726e-06   0.63291033 7.8556615e-06   0.64556835 6.9881458e-06   0.65822668 2.3228116e-06   0.67088862 1.2355859e-07   0.68355091 6.7509232e-09   0.69620913 7.9982469e-10   0.70886712 1.811203e-10   0.72152508 6.1283516e-11   0.73418305 2.6233333e-11     0.746841 1.3001251e-11   0.75949896 7.1123596e-12   0.77215692 4.1757935e-12   0.78481488 2.5839478e-12   0.79747283 1.6640295e-12   0.81013079 1.1048599e-12   0.82278875 7.5084495e-13    0.8354467 5.1914736e-13   0.84810466 3.6332062e-13   0.86076261 2.561666e-13   0.87342057 1.8115576e-13   0.88607852 1.2791291e-13   0.89873647 8.9741037e-14   0.91139442 6.220748e-14   0.92405237 4.2309056e-14   0.93671032 2.799158e-14   0.94936824 1.7624718e-14    0.9620262 1.0561581e-14   0.97468414 5.7284707e-15   0.98734203 2.6031344e-15            1 9.0825953e-16 
1200 0.00035226234 2.6769309e-08            0 1.5953522e-08 0.00024871943 7.8646262e-06 7.8646262e-06    3.8445147            0            0  0.012658092 4.7266334e-14  0.025316186 1.444885e-13  0.037974281 2.3834537e-13  0.050632373 2.8100167e-13  0.063290464 2.4274986e-13  0.075948544 1.822187e-13  0.088606622 9.2514251e-14    0.1012647 1.6651863e-14   0.11392279 3.5737671e-15    0.1265809 1.0354786e-13   0.13923901 4.4789267e-13   0.15189713 1.1712265e-12   0.16455524 2.4396781e-12   0.17721336 4.4558106e-12   0.18987147 7.4642067e-12   0.20252959 1.1758314e-11    0.2151877 1.7688875e-11   0.22784582 2.5674354e-11   0.24050393 3.6213941e-11   0.25316205 4.9903869e-11   0.26582016 6.7458078e-11   0.27847828 8.9734597e-11   0.29113639 1.1776956e-10   0.30379451 1.5282145e-10   0.31645262 1.9642934e-10   0.32911074 2.5049028e-10   0.34176886 3.1736348e-10   0.35442698 4.000122e-10    0.3670851 5.0219985e-10   0.37974322 6.2876502e-10   0.39240134 7.8601369e-10   0.40505946 9.8228878e-10   0.41771758 1.2288146e-09   0.43037571 1.5409779e-09   0.44303383 1.9403252e-09   0.45569196 2.4577713e-09   0.46835009 3.1389348e-09   0.48100821 4.0533265e-09   0.49366634 5.3108262e-09   0.50632447 7.0931303e-09    0.5189826 9.7191876e-09   0.53164074 1.3793296e-08   0.54429888  2.05747e-08   0.55695705 3.304982e-08   0.56961529 5.9625686e-08   0.58227378 1.2967055e-07   0.59493226 3.7287639e-07   0.60759218 1.4149775e-06    0.6202521 4.594501e-06   0.63291035 7.8646262e-06    0.6455685 6.9524592e-06   0.65822689 2.2284921e-06   0.67088828 9.9181325e-08   0.68354728 4.6548454e-09   0.69620554 4.9787563e-10   0.70886367 1.0723581e-10   0.72152178 3.555855e-11   0.73417989 1.5112416e-11     0.746838 7.478588e-12    0.7594961 4.0966795e-12   0.77215421 2.412274e-12   0.78481232 1.4984353e-12   0.79747042 9.6916253e-13   0.81012853 6.464084e-13   0.82278663 4.4125846e-13   0.83544473 3.0638559e-13   0.84810284 2.152397e-13   0.86076094 1.522529e-13   0.87341904 1.0794517e-13   0.88607714 7.6351327e-14   0.89873524 5.3607866e-14   0.91139334 3.7147563e-14   0.92405144 2.5224557e-14   0.93670954 1.6622042e-14   0.94936763 1.0512867e-14   0.96202573 6.2214875e-15   0.97468382 3.3386154e-15    0.9873419 1.5243236e-15            1 5.0197768e-16 
1240 0.00047311938  5.02622e-08            0 1.1733838e-08 0.0002455081 7.8724662e-06 7.8724662e-06    3.8488425            0            0  0.012658059 3.5231737e-14  0.025316118 1.0792591e-13  0.037974176 1.7856384e-13  0.050632236 2.0716954e-13  0.063290295 1.7960608e-13  0.075948349 1.3636342e-13  0.088606401 7.2476247e-14   0.10126446 2.0537372e-14   0.11392251 1.038622e-14   0.12658058 9.2135929e-14   0.13923864 3.4911844e-13    0.1518967 8.8598113e-13   0.16455475 1.8254498e-12    0.1772128 3.3172419e-12   0.18987085 5.5422303e-12   0.20252889 8.7175438e-12   0.21518692 1.3102859e-11   0.22784495 1.9008183e-11   0.24050298 2.6803559e-11   0.25316099 3.6931268e-11   0.26581901 4.9921269e-11   0.27847702 6.6410947e-11   0.29113502 8.7170576e-11   0.30379302 1.1313648e-10   0.31645101 1.4545474e-10     0.329109 1.8553925e-10   0.34176699 2.351501e-10   0.35442497 2.9650034e-10   0.36708294 3.7240377e-10   0.37974092 4.6648257e-10   0.39239888 5.8346382e-10   0.40505685 7.2961095e-10   0.41771481 9.1336479e-10   0.43037277 1.1463186e-09   0.44303073 1.4447421e-09   0.45568868 1.8320385e-09   0.46834663 2.3428442e-09   0.48100457 3.0301194e-09   0.49366252 3.9779431e-09   0.50632046 5.3261408e-09   0.51897839 7.3220028e-09   0.53163633 1.0438705e-08   0.54429427 1.5676414e-08    0.5569522 2.5457081e-08    0.5696101 4.6810263e-08    0.5822677 1.0540592e-07   0.59492651 3.2220236e-07   0.60759172 1.3332632e-06   0.62025246 4.5695764e-06    0.6329107 7.8724662e-06   0.64556879 6.9213685e-06    0.6582271 2.1454894e-06   0.67088925 7.956265e-08   0.68354915 3.176712e-09   0.69620686 3.0478525e-10   0.70886489 6.2275258e-11   0.72152292 2.0246709e-11   0.73418095 8.5590666e-12   0.74683898 4.2403101e-12   0.75949702 2.3335098e-12   0.77215505 1.3834988e-12   0.78481309 8.6667719e-13   0.79747113 5.6596303e-13   0.81012918 3.8143861e-13   0.82278722 2.6324207e-13   0.83544527 1.8482625e-13   0.84810332 1.312842e-13   0.86076137 9.3860812e-14   0.87341943 6.7212747e-14   0.88607748 4.7968226e-14   0.89873554 3.3935094e-14    0.9113936 2.3649759e-14   0.92405165 1.6111968e-14   0.93670971 1.0611884e-14   0.94936776 6.7087488e-15   0.96202583 3.9137147e-15   0.97468389 2.0508291e-15   0.98734193 9.0692925e-16            1 2.7155053e-16 
1280 0.00030425448 2.463017e-08            0 8.6055456e-09 0.00024285901 7.8788415e-06 7.8788415e-06    3.8529573            0            0  0.012658001 2.6391771e-14  0.025316005 8.1214488e-14   0.03797401 1.3527178e-13  0.050632011 1.5214588e-13   0.06329001 1.3763395e-13  0.075947996 1.1069586e-13  0.088605978 7.0693229e-14   0.10126396 4.1807404e-14   0.11392195 3.2342605e-14   0.12657998 1.1160895e-13   0.13923802 3.0654909e-13   0.15189605 7.0794994e-13   0.16455408 1.4063622e-12   0.17721212 2.5122867e-12   0.18987015 4.159255e-12   0.20252819 6.5076164e-12   0.21518623 9.7491967e-12   0.22784427 1.4113078e-11   0.24050232 1.9872816e-11   0.25316036 2.7355501e-11   0.26581841 3.6953261e-11   0.27847646 4.9137974e-11   0.29113452 6.4480245e-11   0.30379257 8.3674184e-11   0.31645064 1.0757001e-10    0.3291087 1.3721755e-10   0.34176677 1.739248e-10   0.35442484 2.1933809e-10   0.36708292 2.7555287e-10     0.379741 3.4526985e-10   0.39239909 4.3201811e-10   0.40505718 5.404805e-10   0.41771527 6.7697798e-10   0.43037337 8.5020809e-10   0.44303148 1.0724022e-09   0.45568958 1.3611973e-09    0.4683477 1.7427696e-09   0.48100581 2.2572762e-09   0.49366394 2.9687354e-09   0.50632206 3.9841981e-09   0.51898019 5.4943672e-09   0.53163833 7.8676964e-09   0.54429648 1.1894076e-08   0.55695466 1.9526535e-08   0.56961299 3.6611134e-08   0.58227228 8.5494593e-08   0.59493473 2.787234e-07   0.60759391 1.2586221e-06   0.62025267 4.5472024e-06   0.63291074 7.8788415e-06    0.6455688 6.8956446e-06   0.65822707 2.0751833e-06   0.67088777 6.4371168e-08     0.683549 2.1774216e-09   0.69620744 1.8625587e-10   0.70886551 3.606542e-11   0.72152355 1.1535104e-11   0.73418159 4.881011e-12   0.74683963 2.4421618e-12   0.75949767 1.365217e-12   0.77215571 8.2578704e-13   0.78481374 5.2951997e-13   0.79747177 3.5480925e-13    0.8101298 2.4574698e-13   0.82278783 1.7442294e-13   0.83544585 1.2595394e-13   0.84810387 9.1959114e-14   0.86076189 6.7497805e-14   0.87341991 4.9539302e-14   0.88607793 3.6157671e-14   0.89873595 2.6089966e-14   0.91139396 1.8483139e-14   0.92405197 1.2746642e-14   0.93670998 8.4576715e-15   0.94936798 5.2542431e-15   0.96202599 3.0336508e-15     0.974684 1.5174431e-15   0.98734199 5.7509939e-16            1 1.4605846e-16 
1320 0.00031543902 1.8768527e-08            0 6.3477394e-09 0.00024080511 7.8837096e-06 7.8837096e-06    3.8567653            0            0  0.012658133 1.9502162e-14  0.025316267 5.9884844e-14    0.0379744 9.9366161e-14  0.050632534 1.1227856e-13  0.063290667 9.4841324e-14    0.0759488 7.1660741e-14  0.088606933 3.8226035e-14   0.10126507 1.2777943e-14    0.1139232 9.5019397e-15   0.12658133 5.2209496e-14   0.13923947 1.8911303e-13    0.1518976 4.7758619e-13   0.16455573 9.8460341e-13   0.17721386 1.7919551e-12   0.18987199 2.9985487e-12   0.20253012 4.7232329e-12   0.21518825 7.1082812e-12   0.22784638 1.0323709e-11    0.2405045 1.4572666e-11   0.25316263 2.0098213e-11   0.26582075 2.7191928e-11   0.27847887 3.6204914e-11   0.29113699 4.7562017e-11   0.30379511 6.1780387e-11   0.31645323 7.9493946e-11   0.32911135 1.0148602e-10   0.34176947 1.2873341e-10   0.35442759 1.6246657e-10    0.3670857 2.0425321e-10   0.37974381 2.561159e-10   0.39240193 3.2070068e-10   0.40506004 4.0152317e-10   0.41771815 5.0333567e-10   0.43037626 6.3268808e-10   0.44303437 7.9880904e-10   0.45569247 1.0150351e-09   0.46835058 1.3012113e-09   0.48100868 1.6878752e-09   0.49366678 2.2238975e-09   0.50632489 2.9914183e-09   0.51898299 4.1377579e-09   0.53164109 5.9501764e-09   0.54429919 9.0528557e-09    0.5569573 1.5020304e-08   0.56961541 2.8707575e-08   0.58227342 6.9496202e-08    0.5949309 2.4126726e-07   0.60759263 1.1908594e-06   0.62025264 4.5271199e-06   0.63291089 7.8837096e-06   0.64556905 6.8752667e-06   0.65822734 2.0175497e-06   0.67088854 5.2637151e-08   0.68354684 1.5163614e-09    0.6962049 1.1531524e-10   0.70886302 2.1121064e-11   0.72152115 6.6422728e-12   0.73417927 2.8097157e-12   0.74683739 1.4153127e-12   0.75949552 7.9925841e-13   0.77215365 4.8919507e-13   0.78481177 3.1759104e-13    0.7974699 2.154042e-13   0.81012803 1.5089469e-13   0.82278616 1.0819229e-13   0.83544428 7.8809858e-14   0.84810241 5.7949384e-14   0.86076054 4.276727e-14   0.87341868 3.1507554e-14   0.88607681 2.3045498e-14   0.89873494 1.6636131e-14   0.91139307 1.1770465e-14    0.9240512 8.0922536e-15   0.93670934 5.3363119e-15   0.94936747 3.3233242e-15    0.9620256  1.88706e-15   0.97468373 9.2750246e-16   0.98734187 3.5229533e-16            1 7.9470809e-17 
1360 0.00037334368 3.0399063e-08            0 4.6611393e-09 0.0002392757 7.8873254e-06 7.8873254e-06    3.8604004            0            0  0.012658011 1.4529693e-14  0.025316022 4.4714211e-14  0.037974033 7.4410588e-14  0.050632044 8.2463388e-14  0.063290054 6.955153e-14  0.075948063  5.31133e-14  0.088606071 2.9663117e-14   0.10126408 1.2857512e-14   0.11392209 1.1710876e-14    0.1265801 4.3884899e-14   0.13923812 1.4437753e-13   0.15189613 3.5623745e-13   0.16455415 7.2883084e-13   0.17721216 1.3224725e-12   0.18987017 2.2101311e-12   0.20252819 3.4795239e-12    0.2151862 5.2357008e-12   0.22784422 7.6042488e-12   0.24050223 1.0735297e-11   0.25316024 1.4808555e-11   0.26581826 2.0039711e-11   0.27847627 2.6688624e-11   0.29113429 3.5069911e-11   0.30379231 4.5566784e-11   0.31645032 5.8649292e-11   0.32910834 7.4898689e-11   0.34176636 9.5040336e-11   0.35442438 1.1998876e-10    0.3670824 1.5091017e-10   0.37974042 1.893107e-10   0.39239844 2.3716289e-10   0.40505647 2.9709078e-10   0.41771449 3.7264632e-10   0.43037252 4.6873262e-10   0.44303055 5.9227051e-10   0.45568857 7.5328229e-10    0.4683466 9.6671748e-10   0.48100463 1.2556475e-09   0.49366267 1.6571295e-09    0.5063207 2.2337516e-09   0.51897874 3.0984967e-09   0.53163677 4.4736354e-09   0.54429482 6.848521e-09   0.55695287 1.1482079e-08   0.56961099 2.2372318e-08   0.58226962 5.6199436e-08   0.59493183 2.0856889e-07   0.60759391 1.1281454e-06   0.62025304 4.5082364e-06   0.63291111 7.8873254e-06   0.64556916 6.8591359e-06   0.65822735 1.9693934e-06   0.67088821 4.3319126e-08   0.68354949 1.0539144e-09   0.69620763 7.0956955e-11   0.70886565 1.2291709e-11   0.72152367 3.8163633e-12   0.73418169 1.624421e-12   0.74683971 8.3062731e-13   0.75949773 4.784127e-13   0.77215575 2.9940302e-13   0.78481377 1.9894719e-13   0.79747178 1.3808955e-13    0.8101298 9.8901094e-14   0.82278782 7.2391782e-14   0.83544583 5.3733425e-14   0.84810385 4.0180893e-14   0.86076186 3.0095575e-14   0.87341988 2.2456526e-14   0.88607789 1.6602505e-14    0.8987359 1.2089707e-14   0.91139392 8.6100533e-15   0.92405193 5.944439e-15   0.93670994 3.9257752e-15   0.94936795 2.4265289e-15   0.96202597 1.3657267e-15   0.97468398 6.5359678e-16   0.98734199 2.2803222e-16            1 4.2850245e-17 
[...]
3720 1.4944266e-05 5.0488631e-11            0 3.3485312e-16 8.6637125e-07 8.1547674e-06 8.1547674e-06    3.9186202            0            0  0.012733484 1.5800346e-19  0.025466969 6.6836837e-19  0.038200452 1.2446199e-18  0.050933934 2.5565417e-18  0.063667421 2.2436262e-18  0.076400909 6.1179857e-18  0.089134388 6.0369508e-18   0.10186786 2.2450507e-17   0.11460133 1.3501307e-18   0.12733482 2.3030493e-17   0.14006831 8.8925293e-18    0.1528018 1.2883722e-16   0.16553528 9.2654214e-17   0.17826877 9.5595486e-18   0.19100226 1.527568e-17   0.20373574 3.8179221e-17   0.21646921 2.075619e-17   0.22920271 5.6095163e-17    0.2419362 1.5562011e-17   0.25466967 1.174302e-17   0.26740316 4.875543e-17   0.28013666 3.4081342e-18   0.29287012 3.2429276e-17    0.3056036 5.6850087e-18   0.31833708 5.129728e-17   0.33107055 1.2762336e-17   0.34380401 4.8224988e-17   0.35653752 1.9347429e-17   0.36927101 7.6110983e-17   0.38200451 1.571931e-17   0.39473801 5.1865842e-17   0.40747148 6.4481271e-17   0.42020496 1.4226826e-16   0.43293845 3.9017873e-17   0.44567196 1.6911526e-16   0.45840549 4.1862772e-16   0.47113901 3.4572583e-16   0.48387247 1.5871575e-15   0.49660593 1.5291999e-15   0.50933939 1.362177e-16    0.5220728 2.3470787e-16   0.53480625 1.5878438e-17   0.54753982 2.0753041e-16   0.56027334 1.1130956e-15   0.57300682 2.0168921e-14   0.58574028 2.7448664e-12   0.59847397 1.4183548e-09   0.61120757 1.3082937e-06   0.62394105 5.6762856e-06   0.63667456 8.1547674e-06     0.649203 5.4577446e-06   0.66173146 5.0483838e-07   0.67425995 1.0686722e-14   0.68678842 1.9514084e-19   0.69931688 1.331494e-19   0.71184534 1.2044994e-19   0.72437381 1.0783402e-19   0.73690227 9.5984622e-20   0.74943073 8.491222e-20    0.7619592 7.462265e-20   0.77448766 6.5111566e-20   0.78701612 5.6368843e-20   0.79954459 4.8380517e-20   0.81207305 4.1128532e-20   0.82460151 3.4591754e-20   0.83712998 2.874566e-20   0.84965844 2.3562681e-20    0.8621869 1.9012374e-20   0.87471537 1.5061357e-20   0.88724383 1.1673677e-20   0.89977229 8.8112023e-21   0.91230076 6.4342309e-21   0.92482922 4.504561e-21   0.93735768 2.9746371e-21   0.94988615 1.8077028e-21   0.96241461 9.6472694e-22   0.97494307 4.0642574e-22   0.98747154 9.6240844e-23            1 1.5847652e-32 
3760 1.3975838e-05 4.5095192e-11            0 1.1212842e-15 7.6072484e-07 8.1547682e-06 8.1547682e-06    3.9187262            0            0  0.012733669 1.3912218e-19  0.025467338 5.8781126e-19  0.038201007 1.2998961e-18  0.050934674 1.126654e-18  0.063668345 1.8922937e-18  0.076402018 3.2021363e-18  0.089135681 2.096741e-18   0.10186934 8.352202e-18     0.114603 4.0047506e-18   0.12733667 1.1584061e-17   0.14007035 5.786932e-18   0.15280401 2.3030889e-17   0.16553769 2.6913014e-18   0.17827136 1.3817055e-17   0.19100503 4.5286723e-18    0.2037387 2.1720842e-17   0.21647236 1.0953966e-17   0.22920604 5.457025e-17   0.24193971 3.265124e-17   0.25467337 6.6938193e-17   0.26740704 1.8777064e-16   0.28014072 1.6139588e-17   0.29287438 2.4988262e-17   0.30560804 2.7297045e-18   0.31834171 2.2152874e-17   0.33107536 1.7446244e-17   0.34380901 4.3310194e-17    0.3565427 1.3469285e-17   0.36927637 1.0034076e-16   0.38201006 1.2674492e-17   0.39474374 7.220451e-17    0.4074774 1.1010536e-16   0.42021107 4.4531546e-16   0.43294474 2.2809182e-16   0.44567844 2.8137233e-16   0.45841214 3.8273426e-16   0.47114585 3.5430385e-16   0.48387949 1.3580672e-15   0.49661314 1.3208499e-15   0.50934679 1.3060858e-16   0.52208039 2.185968e-16   0.53481403 3.2136992e-17   0.54754778 2.1102218e-16   0.56028147 8.7609211e-16   0.57301513 1.5310077e-14   0.58574878 2.2394448e-12   0.59848264 1.2665437e-09   0.61121642 1.3084154e-06   0.62395009 5.6766636e-06   0.63668378 8.1547682e-06    0.6492119 5.4570834e-06   0.66174005 5.0441867e-07   0.67426822 1.1566166e-14   0.68679636 1.833365e-19   0.69932451 1.3249274e-19   0.71185266 1.1973277e-19    0.7243808 1.0718713e-19   0.73690895 9.5401881e-20   0.74943709 8.4391113e-20   0.76196524 7.4160752e-20   0.77449338 6.4706255e-20   0.78702153 5.601734e-20   0.79954967 4.8079421e-20   0.81207782 4.0874144e-20   0.82460596 3.4380065e-20   0.83713411 2.8572301e-20   0.84966226 2.3423134e-20    0.8621904 1.8902117e-20   0.87471855 1.4975895e-20   0.88724669 1.1608891e-20   0.89977484 8.7632936e-21   0.91230298  6.39982e-21   0.92483113 4.4807402e-21   0.93735927 2.9589721e-21   0.94988742 1.7981505e-21   0.96241556 9.5955991e-22   0.97494371 4.0418932e-22   0.98747185 9.569227e-23            1 1.9809565e-32 
3800 1.3156147e-05 4.023496e-11            0 7.7801427e-16 6.6798969e-07 8.1547688e-06 8.1547688e-06    3.9188257            0            0  0.012733842 1.2228868e-19  0.025467685 5.157094e-19  0.038201526 1.257785e-18  0.050935366 1.1789772e-18   0.06366921 1.6413244e-18  0.076403056 1.592635e-18  0.089136893 2.2754353e-18   0.10187072 3.9660958e-19   0.11460456 7.8799209e-18    0.1273384 3.4553878e-19   0.14007225 1.7274341e-17   0.15280609 3.9041669e-17   0.16553994 1.8866269e-18   0.17827379 1.4091365e-17   0.19100763 4.4864863e-18   0.20374147 1.7733081e-17    0.2164753 1.5873746e-17   0.22920916 3.6857948e-17     0.241943 7.4594161e-17   0.25467684  3.35778e-17   0.26741068 1.1330308e-16   0.28014454 2.2039179e-17   0.29287836 3.7505379e-17    0.3056122 1.8911448e-17   0.31834604 2.915127e-17   0.33107987 1.3805447e-16   0.34381369 2.1663883e-17   0.35654755 8.7974615e-17    0.3692814 9.6017481e-18   0.38201525 9.3661794e-17   0.39474911 4.9016772e-17   0.40748294 1.2175086e-16   0.42021679 5.3503443e-16   0.43295064 3.0380278e-16    0.4456845 7.2741748e-16   0.45841838 6.8164502e-16   0.47115225 4.4340171e-16   0.48388606 1.2081842e-15   0.49661989 1.1947215e-15   0.50935372 1.4993875e-16    0.5220875 2.2504473e-16   0.53482131 1.350797e-16   0.54755523 2.2978177e-16   0.56028909 7.5103279e-16   0.57302292 1.1644262e-14   0.58575674 1.8246041e-12   0.59849077 1.1302051e-09   0.61122471 1.3085052e-06   0.62395855 5.6769846e-06   0.63669241 8.1547688e-06   0.64922024 5.4565021e-06   0.66174809 5.0404938e-07   0.67427596 1.2082407e-14   0.68680381 1.7210839e-19   0.69933166 1.2972653e-19    0.7118595 1.1713711e-19   0.72438735 1.0485821e-19    0.7369152 9.3322234e-20   0.74944305 8.254568e-20    0.7619709 7.2534527e-20   0.77449874  6.32843e-20   0.78702659 5.4784735e-20   0.79955444 4.7021114e-20   0.81208229 3.9975167e-20   0.82461013 3.3625243e-20   0.83713798 2.7946819e-20   0.84966583 2.2912343e-20   0.86219368 1.849176e-20   0.87472152 1.4652405e-20   0.88724937 1.1359374e-20   0.89977722 8.5758139e-21   0.91230507 6.2634403e-21   0.92483291 4.385518e-21   0.93736076 2.896168e-21   0.94988861 1.7599601e-21   0.96241646 9.3911651e-22    0.9749443 3.9553131e-22   0.98747215 9.3625211e-23            1 1.4527014e-32 
3840 1.2382434e-05 3.5876053e-11            0 3.4871741e-16 5.8653723e-07 8.1547692e-06 8.1547692e-06    3.9189193            0            0  0.012734005 1.0743215e-19  0.025468009 4.5183286e-19  0.038202013 1.1831168e-18  0.050936016 1.0706711e-18  0.063670022 1.9095583e-18   0.07640403 1.7699985e-18   0.08913803 5.9197177e-18   0.10187202 2.4294667e-18   0.11460602 1.0743924e-17   0.12734003 4.7704936e-18   0.14007404 3.2159676e-17   0.15280804 5.7039348e-17   0.16554205 9.4820467e-18   0.17827606 3.1640309e-18   0.19101007 7.0331276e-18   0.20374407 5.8401053e-18   0.21647806 1.8932279e-17   0.22921208 5.215994e-17   0.24194609 6.0388096e-18   0.25468008 2.1041395e-17   0.26741409 2.4916535e-17   0.28014811 1.0287862e-16    0.2928821 3.4811012e-17    0.3056161 3.7365643e-17    0.3183501 2.3962666e-17   0.33108409 5.893683e-18   0.34381808 9.0092172e-17    0.3565521 8.2589817e-18   0.36928611 5.8271683e-17   0.38202013 2.1685759e-17   0.39475414 5.9914604e-17   0.40748814 9.6089583e-17   0.42022215 8.7410457e-17   0.43295616 3.1987225e-16   0.44569019 1.4257338e-16   0.45842423 3.3977975e-16   0.47115826 3.0653196e-16   0.48389223 1.109035e-15   0.49662622 1.0922675e-15   0.50936021 2.114587e-16   0.52209416 1.7104557e-16   0.53482814 1.8991178e-16   0.54756221 2.4512158e-16   0.56029623 6.9121864e-16   0.57303022 8.8670168e-15   0.58576421 1.4844417e-12   0.59849839 1.0078066e-09   0.61123248 1.3085681e-06   0.62396649 5.6772563e-06   0.63670051 8.1547692e-06   0.64922806 5.4559908e-06   0.66175563 5.0372418e-07   0.67428322 1.2283952e-14   0.68681079 1.6112191e-19   0.69933836 1.2530006e-19   0.71186593 1.130674e-19   0.72439349 1.012102e-19   0.73692106 9.0069165e-20   0.74944863 7.9662613e-20    0.7619762 6.9996541e-20   0.77450377 6.1066562e-20   0.78703134 5.2862625e-20    0.7995589 4.5370413e-20   0.81208647 3.857169e-20   0.82461404 3.2445428e-20   0.83714161 2.696747e-20   0.84966918 2.2110837e-20   0.86219675 1.7846368e-20   0.87472432 1.4142331e-20   0.88725188 1.0965003e-20   0.89977945 8.2788682e-21   0.91230702 6.0470667e-21   0.92483459 4.2342688e-21   0.93736216 2.7963701e-21   0.94988973 1.6992952e-21   0.96241729 9.0669667e-22   0.97494486 3.8183484e-22   0.98747243 9.0366392e-23            1 3.961913e-33 
3880 1.1658756e-05 3.1888058e-11            0 5.6777877e-16 5.1487759e-07 8.1547695e-06 8.1547695e-06    3.9190073            0            0  0.012734157 9.4428485e-20  0.025468314 3.9781857e-19   0.03820247 1.0795867e-18  0.050936625 9.3155408e-19  0.063670784 1.9337268e-18  0.076404944 1.6731232e-18  0.089139096 6.6282506e-18   0.10187324 3.0699425e-18   0.11460739 1.0203622e-17   0.12734155 6.9128194e-18   0.14007572 3.2406268e-17   0.15280987 5.562311e-17   0.16554403 6.7942457e-18    0.1782782 1.5686776e-17   0.19101235 6.5588093e-18   0.20374651 8.5115997e-18   0.21648066 3.8191251e-17   0.22921483 9.4787843e-17   0.24194899 5.3797445e-18   0.25468314 2.2996817e-17   0.26741729 5.3818871e-18   0.28015146 6.9419828e-17    0.2928856 2.5917427e-17   0.30561976 6.179812e-17   0.31835391 3.910548e-17   0.33108806 8.9308415e-17    0.3438222 6.0210189e-17   0.35655637 6.305747e-17   0.36929053 6.2224696e-17    0.3820247 5.0517026e-17   0.39475887 7.7471969e-17   0.40749302 1.3814426e-16   0.42022718 2.3777498e-17   0.43296135 1.6398449e-16   0.44569552 9.8899773e-17   0.45842971 3.088282e-16   0.47116389 3.0273049e-16   0.48389801 1.0519469e-15   0.49663215 1.0338332e-15   0.50936631  1.82819e-16   0.52210041 2.3433109e-16   0.53483455 2.3174544e-16   0.54756877 2.1937963e-16   0.56030293 6.6308852e-16   0.57303708 6.7315033e-15   0.58577122 1.2054514e-12   0.59850554 8.9783924e-10   0.61123978 1.3086083e-06   0.62397394 5.6774858e-06   0.63670811 8.1547695e-06    0.6492354 5.4555403e-06   0.66176271 5.0343728e-07   0.67429004 1.2223993e-14   0.68681734 1.5023704e-19   0.69934465 1.1961372e-19   0.71187196 1.0788229e-19   0.72439926 9.6565764e-20   0.73692657 8.5932013e-20   0.74945387 7.6000255e-20   0.76198118 6.6776105e-20   0.77450849 5.8255468e-20   0.78703579 5.042844e-20    0.7995631 4.3281212e-20   0.81209041 3.6796067e-20   0.82461771 3.0952643e-20   0.83714502 2.5727695e-20   0.84967232 2.1095392e-20   0.86219963 1.7027696e-20   0.87472694 1.3494339e-20   0.88725424 1.046315e-20   0.89978155 7.9003339e-21   0.91230886 5.7707929e-21   0.92483616 4.0409043e-21   0.93736347 2.6687011e-21   0.94989077 1.6216927e-21   0.96241808 8.6527187e-22   0.97494539 3.6437023e-22   0.98747269 8.6229672e-23            1 7.4836135e-33 
3920 1.0965993e-05 2.8412558e-11            0 2.7564273e-16 4.5195068e-07 8.1547698e-06 8.1547698e-06      3.91909            0            0    0.0127343 8.2994931e-20    0.0254686 3.4891183e-19  0.038202899 9.294693e-19  0.050937197 8.5788434e-19  0.063671499 1.3461057e-18  0.076405802 2.8550273e-18  0.089140097 9.2066162e-19   0.10187439 5.6323613e-19   0.11460868 2.6141547e-17   0.12734298 4.2284519e-17   0.14007729 5.6282078e-17   0.15281159 1.3375426e-17    0.1655459 1.5332923e-17    0.1782802 1.1358302e-17    0.1910145 5.8141639e-18    0.2037488 8.8812794e-18   0.21648309 3.1022839e-17    0.2292174 7.7362061e-17   0.24195171 7.9068244e-18     0.254686 1.959523e-17    0.2674203 3.1599365e-18   0.28015461 2.6820659e-17   0.29288889 5.1100601e-18   0.30562319 1.9280172e-17   0.31835749 4.175351e-18   0.33109178 1.7961521e-17   0.34382607 3.0921242e-18   0.35656038 2.2103053e-17   0.36929468 6.5455079e-18   0.38202899 7.2522269e-17   0.39476331 3.3036242e-17    0.4074976 4.7798896e-17    0.4202319 3.4064243e-17   0.43296621 8.2418937e-17   0.44570053 5.3575754e-17   0.45843486 7.6859199e-17   0.47116918 8.597985e-16   0.48390344 8.5004416e-16   0.49663773 8.7375146e-16   0.50937203  1.91809e-16   0.52210628 1.9060622e-16   0.53484056 1.8661637e-16   0.54757492 2.1426787e-16   0.56030922 5.5529391e-16   0.57304351 5.0564854e-15   0.58577779 9.775154e-13   0.59851225 7.9931894e-10   0.61124663 1.3086294e-06   0.62398093 5.6776783e-06   0.63671524 8.1547698e-06   0.64924229 5.4551439e-06   0.66176935 5.031846e-07   0.67429643 1.195511e-14   0.68682349 1.3948455e-19   0.69935055 1.1305455e-19   0.71187761 1.0192624e-19   0.72440467 9.1231138e-20   0.73693173 8.1180699e-20   0.74945879 7.1794287e-20   0.76198585 6.3077512e-20   0.77451291 5.5026349e-20   0.78703997 4.7631529e-20   0.79956703 4.0879793e-20   0.81209409 3.4754231e-20   0.82462115 2.9235301e-20   0.83714821 2.4300822e-20   0.84967527 1.9926196e-20   0.86220233 1.608475e-20    0.8747294 1.2747808e-20   0.88725646 9.884941e-21   0.89978352 7.4641858e-21   0.91231058 5.4524893e-21   0.92483764 3.8181705e-21    0.9373647 2.5216521e-21   0.94989176 1.532326e-21   0.96241882 8.1755882e-22   0.97494588 3.4425912e-22   0.98747294 8.1462691e-23            1 2.2010628e-33 
3960 1.0314025e-05 2.525717e-11            0 2.7564273e-16 3.9655306e-07  8.15477e-06  8.15477e-06    3.9191679            0            0  0.012734434 7.2755549e-20  0.025468868 3.0570438e-19  0.038203302 5.8569577e-19  0.050937735 8.2280054e-19   0.06367217 1.9520052e-18  0.076406607 1.3224584e-18  0.089141037 8.9878801e-18   0.10187546 4.5633164e-18   0.11460989 1.3983853e-17   0.12734433 4.9824512e-19   0.14007877 2.6476098e-18   0.15281321 2.8838789e-18   0.16554764 4.3490598e-18   0.17828208 4.8069781e-18   0.19101652 3.1149577e-18   0.20375095 1.0140704e-17   0.21648538 2.1445932e-17   0.22921982 5.1930891e-17   0.24195426 1.669582e-17   0.25468869 2.1305056e-17   0.26742312 2.4254831e-17   0.28015757 1.6684683e-18   0.29289199 1.7866189e-17   0.30562642 5.765115e-18   0.31836085 1.7014933e-17   0.33109528 1.0793724e-17    0.3438297 3.6750989e-17   0.35656414 2.3005916e-18   0.36929858 2.631078e-17   0.38203303 1.4148834e-16   0.39476747 7.1311727e-17    0.4075019 7.2677404e-17   0.42023634 1.1591911e-16   0.43297078 7.754824e-18   0.44570523 1.1381335e-16   0.45843969 7.4524693e-17   0.47117414 1.7316182e-16   0.48390854 1.0033606e-16   0.49664296 2.7035678e-16    0.5093774 1.0911954e-16   0.52211179 2.8961615e-16    0.5348462 1.5350904e-16   0.54758069 1.2043608e-16   0.56031513 4.8904357e-16   0.57304955  3.79136e-15   0.58578397 7.9108961e-13   0.59851855 7.1089875e-10   0.61125306 1.3086347e-06    0.6239875 5.6778393e-06   0.63672194  8.15477e-06   0.64924876 5.4547944e-06   0.66177559 5.0296143e-07   0.67430243 1.1525136e-14   0.68682926 1.2889492e-19   0.69935609 1.0592164e-19   0.71188292 9.5465821e-20   0.72440975 8.5446008e-20   0.73693658 7.602964e-20   0.74946341 6.7235859e-20   0.76199024 5.906996e-20   0.77451707 5.1528478e-20    0.7870439 4.4602476e-20   0.79957073 3.8279342e-20   0.81209756 3.254325e-20   0.82462439 2.7375621e-20   0.83715122 2.2755465e-20   0.84967805 1.8659599e-20   0.86220488 1.5062949e-20   0.87473171 1.193852e-20   0.88725854 9.2578447e-21   0.89978536 6.9909873e-21   0.91231219 5.1070155e-21   0.92483902 3.5763447e-21   0.93736585 2.3619723e-21   0.94989268 1.4352956e-21   0.96241951 7.6576537e-22   0.97494634 3.2243539e-22   0.98747317 7.6293955e-23            1 2.2010628e-33 
4000 9.7012837e-06 2.2418908e-11            0 3.1644028e-16 3.478681e-07 8.1547702e-06 8.1547702e-06    3.9192411            0            0   0.01273456 6.3995085e-20  0.025469121 2.6915451e-19   0.03820368 4.9396121e-19  0.050938239 1.0591509e-18  0.063672801 2.1659235e-18  0.076407364 1.0289819e-18   0.08914192 5.3650625e-18   0.10187647 2.2295935e-18   0.11461103 1.7555409e-17   0.12734559 8.8663855e-18   0.14008016 2.5079803e-17   0.15281472 2.0891468e-17   0.16554928 2.1036838e-18   0.17828385 3.5484084e-18   0.19101841 2.0234524e-18   0.20375296 1.1355959e-17   0.21648752 1.7263845e-17   0.22922209 3.3667511e-17   0.24195666 4.5921927e-18   0.25469121 1.5280545e-17   0.26742577 1.4389779e-18   0.28016034 4.2258386e-17   0.29289489 7.9770405e-18   0.30562945 8.6917599e-18     0.318364 1.0209013e-16   0.33109855 1.8160282e-16    0.3438331 2.4788154e-17   0.35656767 5.7855794e-17   0.36930224 3.0255876e-17   0.38203681 1.8582212e-16   0.39477138 1.2892947e-16   0.40750594 1.2724939e-16    0.4202405 1.712052e-16   0.43297507 1.4026407e-17   0.44570964 7.5402966e-17   0.45844423 5.1922191e-17    0.4711788 1.6614687e-16   0.48391333 1.1493519e-16   0.49664788 2.2618071e-16   0.50938244 1.2730903e-16   0.52211696 2.0427473e-16    0.5348515 1.3360227e-16   0.54758611 1.0357728e-16   0.56032067 4.0474636e-16   0.57305522 2.8161085e-15   0.58578976 6.3914036e-13   0.59852447 6.3174238e-10    0.6112591 1.3086266e-06   0.62399366 5.6779728e-06   0.63672823 8.1547702e-06   0.64925483 5.4544867e-06   0.66178145 5.0276464e-07   0.67430807 1.0977539e-14   0.68683469 1.1855923e-19    0.6993613 9.848243e-20   0.71188791 8.8739256e-20   0.72441452 7.9423292e-20   0.73694114 7.0667963e-20   0.74946775 6.2491937e-20   0.76199436 5.4900174e-20   0.77452097 4.788949e-20   0.78704759 4.145154e-20    0.7995742 3.5574538e-20   0.81210081 3.0243552e-20   0.82462742 2.5441257e-20   0.83715404 2.1147897e-20   0.84968065 1.7341841e-20   0.86220726 1.3999664e-20   0.87473387 1.1096204e-20   0.88726049 8.6049829e-21    0.8997871 6.498219e-21   0.91231371 4.747191e-21   0.92484032 3.3244325e-21   0.93736694 2.1956209e-21   0.94989355 1.3342012e-21   0.96242016 7.1182069e-22   0.97494677 2.9971261e-22   0.98747339 7.0913408e-23            1 3.5217005e-33 
