LAMMPS (29 Oct 2020)
Processor partition = 18
# LAMMPS task file for neb

      dimension   2
     atom_style bond
     boundary   f f p
     bond_style harmonic
     atom_modify	map array sort 0 0.0

     variable  u uloop 100
     read_data  temp/h_-6779599749597012937_-7482915513354146445_0.txt
Reading data file ...
  orthogonal box = (-6.0000000 -6.0000000 -6.0000000) to (6.0000000 6.0000000 6.0000000)
  1 by 1 by 1 MPI processor grid
  reading atoms ...
  7 atoms
  scanning bonds ...
  3 = max bonds/atom
  reading bonds ...
  11 bonds
Finding 1-2 1-3 1-4 neighbors ...
  special bond factors lj:    0.0      0.0      0.0     
  special bond factors coul:  0.0      0.0      0.0     
     4 = max # of 1-2 neighbors
     9 = max # of 1-3 neighbors
    28 = max # of 1-4 neighbors
     6 = max # of special neighbors
  special bonds CPU = 0.000 seconds
  read_data CPU = 0.090 seconds
     timestep  0.1
     fix 1 all neb 1.0 parallel ideal

     thermo 100
     fix 2 all enforce2d
     dump 1 all atom 10 temp/0dump.neb.$u
     dump 1 all atom 10 temp/0dump.neb.19
      min_style quickmin
     neb 1e-08 0.0 2000 2000 40 final lammps_util/script/prion_neb_pos.lj0
WARNING: Using 'neigh_modify every 1 delay 0 check yes' setting during minimization (../min.cpp:187)
Per MPI rank memory allocation (min/avg/max) = 4.840 | 4.840 | 4.840 Mbytes
Step Temp E_pair E_mol TotEng Press 
       0            0            0  0.033392445  0.033392445  0.010073365 
     100 8.0725305e-07            0 7.3877291e-07 1.4307041e-06 7.685501e-07 
     200 4.3215009e-08            0 5.9152385e-08 9.6193822e-08  7.36581e-08 
     300 1.445954e-09            0 2.1336932e-08 2.2576321e-08 -2.0490066e-08 
     400 1.3192846e-08            0 9.7926056e-09 2.1100759e-08 -2.024206e-08 
     500 1.7302757e-08            0 4.4379816e-09 1.9268916e-08 -1.3415829e-08 
     600 2.4971109e-08            0 1.994646e-09 2.3398454e-08 -5.5099692e-09 
     700 2.5330574e-08            0 8.9370024e-10 2.2605621e-08 -1.4695542e-08 
     800 7.5382887e-09            0 4.4409644e-10 6.9054868e-09 -1.7992977e-08 
     900 5.3497315e-09            0 2.2189315e-10 4.8073773e-09 -1.961408e-08 
    1000 7.999085e-09            0 1.1057008e-10 6.9669287e-09 7.6900475e-09 
    1100 9.008315e-09            0 5.3794433e-11 7.7752073e-09 1.1098548e-08 
    1200 6.1145342e-09            0 2.5674354e-11 5.2667036e-09 6.4613645e-09 
    1300 4.8220302e-09            0 1.2040119e-11 4.1452088e-09 6.2167754e-09 
    1400 4.258717e-09            0 5.559283e-12 3.6558882e-09 9.1984874e-09 
    1500 2.6263141e-09            0 2.6561295e-12 2.2537825e-09 1.7363915e-08 
    1600 1.6722038e-09            0 1.1628742e-12 1.4344805e-09 -8.7312608e-09 
    1700 1.499827e-09            0 5.0106442e-13 1.2860671e-09 3.7948293e-09 
    1800 8.9813578e-10            0 2.1774853e-13 7.7004842e-10 2.4937018e-09 
    1900 4.1592481e-10            0 9.4178343e-14 3.5660116e-10 -6.8990461e-10 
    2000 5.8819818e-10            0 9.4389081e-14 5.0426426e-10 1.0854981e-08 
Loop time of 12.3191 on 1 procs for 2000 steps with 7 atoms

2.7% CPU use with 1 MPI tasks x no OpenMP threads

Minimization stats:
  Stopping criterion = max iterations
  Energy initial, next-to-last, final = 
    0.0333924452737309 8.21891188684272e-14 9.43890811399946e-14
  Force two-norm initial, final = 1.8662193 3.2831699e-05
  Force max component initial, final = 0.94514573 1.6127989e-05
  Final line search alpha, max atom move = 0.0000000 0.0000000
  Iterations, force evaluations = 2000 2000

MPI task timing breakdown:
Section |  min time  |  avg time  |  max time  |%varavg| %total
---------------------------------------------------------------
Pair    | 0          | 0          | 0          |   0.0 |  0.00
Bond    | 0.003061   | 0.003061   | 0.003061   |   0.0 |  0.02
Neigh   | 2e-06      | 2e-06      | 2e-06      |   0.0 |  0.00
Comm    | 0.001365   | 0.001365   | 0.001365   |   0.0 |  0.01
Output  | 0.19977    | 0.19977    | 0.19977    |   0.0 |  1.62
Modify  | 3.6459     | 3.6459     | 3.6459     |   0.0 | 29.60
Other   |            | 8.469      |            |       | 68.75

Nlocal:        7.00000 ave           7 max           7 min
Histogram: 1 0 0 0 0 0 0 0 0 0
Nghost:        0.00000 ave           0 max           0 min
Histogram: 1 0 0 0 0 0 0 0 0 0
Neighs:        0.00000 ave           0 max           0 min
Histogram: 1 0 0 0 0 0 0 0 0 0

Total # of neighbors = 0
Ave neighs/atom = 0.0000000
Ave special neighs/atom = 6.0000000
Neighbor list builds = 1
Dangerous builds = 0
WARNING: Using 'neigh_modify every 1 delay 0 check yes' setting during minimization (../min.cpp:187)
Per MPI rank memory allocation (min/avg/max) = 4.840 | 4.840 | 4.840 Mbytes
Step Temp E_pair E_mol TotEng Press 
    2000            0            0 9.4389081e-14 9.4389081e-14 1.0830473e-08 
    2100 3.454192e-09            0 5.2389494e-14 2.9607884e-09 5.9840672e-09 
    2200 1.7999271e-09            0 7.8844053e-15 1.5428025e-09 1.6238742e-09 
    2300 1.0943121e-09            0 1.7674051e-14 9.3799949e-10 4.9540512e-09 
    2400 8.5133246e-10            0 2.4644571e-15  7.29716e-10 -3.9330575e-10 
    2500 7.9095462e-10            0 6.0390786e-16 6.7796171e-10 7.1517045e-10 
    2600 4.3005295e-10            0 4.1110409e-16 3.6861722e-10 6.5692604e-10 
    2700 3.7296254e-10            0 2.3190651e-15 3.1968449e-10 -7.1118691e-10 
    2800 1.5447176e-10            0 3.9628405e-16 1.3240476e-10 -2.0809288e-10 
    2900 1.2601515e-10            0 1.9786754e-16 1.0801318e-10 6.4560879e-10 
    3000 1.0380344e-10            0 1.9491305e-16 8.8974574e-11 -2.4513476e-10 
    3100 8.6266201e-11            0 2.7863177e-16 7.3942737e-11 7.8414465e-10 
    3200 5.9549881e-11            0 1.6788668e-16 5.1042923e-11 5.824833e-10 
    3300 3.7544317e-11            0 3.0275264e-17 3.2180873e-11 1.7933803e-10 
    3400 2.5314088e-11            0 1.1207844e-16 2.1697902e-11 -3.8828653e-10 
    3500 1.6575753e-11            0 6.5471579e-17 1.4207854e-11 1.4385767e-11 
    3600 1.2354318e-11            0 2.077952e-17 1.0589437e-11 1.1514684e-10 
    3700 8.8283894e-12            0 1.172379e-17 7.5672026e-12 -1.5767771e-11 
    3800 6.2671977e-12            0 3.6857948e-17 5.3719206e-12 -6.2311939e-11 
    3900 4.8849375e-12            0 9.2845301e-17 4.1871821e-12 -4.37591e-10 
    4000 3.9942182e-12            0 3.3667511e-17 3.4236493e-12 -2.6821709e-10 
Loop time of 5.7529 on 1 procs for 2000 steps with 7 atoms

4.3% CPU use with 1 MPI tasks x no OpenMP threads

Minimization stats:
  Stopping criterion = max iterations
  Energy initial, next-to-last, final = 
    9.43890811399946e-14 3.76740847166817e-17 3.36675105117224e-17
  Force two-norm initial, final = 4.1690519e-05 2.7227236e-06
  Force max component initial, final = 2.0514255e-05 1.3415919e-06
  Final line search alpha, max atom move = 0.0000000 0.0000000
  Iterations, force evaluations = 2000 2000

MPI task timing breakdown:
Section |  min time  |  avg time  |  max time  |%varavg| %total
---------------------------------------------------------------
Pair    | 0          | 0          | 0          |   0.0 |  0.00
Bond    | 0.002424   | 0.002424   | 0.002424   |   0.0 |  0.04
Neigh   | 0          | 0          | 0          |   0.0 |  0.00
Comm    | 0.001028   | 0.001028   | 0.001028   |   0.0 |  0.02
Output  | 0.050381   | 0.050381   | 0.050381   |   0.0 |  0.88
Modify  | 1.7336     | 1.7336     | 1.7336     |   0.0 | 30.13
Other   |            | 3.966      |            |       | 68.93

Nlocal:        7.00000 ave           7 max           7 min
Histogram: 1 0 0 0 0 0 0 0 0 0
Nghost:        0.00000 ave           0 max           0 min
Histogram: 1 0 0 0 0 0 0 0 0 0
Neighs:        0.00000 ave           0 max           0 min
Histogram: 1 0 0 0 0 0 0 0 0 0

Total # of neighbors = 0
Ave neighs/atom = 0.0000000
Ave special neighs/atom = 6.0000000
Neighbor list builds = 0
Dangerous builds = 0
Total wall time: 0:00:18
