LAMMPS (29 Oct 2020)
Processor partition = 4
# LAMMPS task file for neb

      dimension   2
     atom_style bond
     boundary   f f p
     bond_style harmonic
     atom_modify	map array sort 0 0.0

     variable  u uloop 100
     read_data  temp/h_-6779599749597012937_-7482915513354146445_0.txt
Reading data file ...
  orthogonal box = (-6.0000000 -6.0000000 -6.0000000) to (6.0000000 6.0000000 6.0000000)
  1 by 1 by 1 MPI processor grid
  reading atoms ...
  7 atoms
  scanning bonds ...
  3 = max bonds/atom
  reading bonds ...
  11 bonds
Finding 1-2 1-3 1-4 neighbors ...
  special bond factors lj:    0.0      0.0      0.0     
  special bond factors coul:  0.0      0.0      0.0     
     4 = max # of 1-2 neighbors
     9 = max # of 1-3 neighbors
    28 = max # of 1-4 neighbors
     6 = max # of special neighbors
  special bonds CPU = 0.000 seconds
  read_data CPU = 0.084 seconds
     timestep  0.1
     fix 1 all neb 1.0 parallel ideal

     thermo 100
     fix 2 all enforce2d
     dump 1 all atom 10 temp/0dump.neb.$u
     dump 1 all atom 10 temp/0dump.neb.5
      min_style quickmin
     neb 1e-08 0.0 2000 2000 40 final lammps_util/script/prion_neb_pos.lj0
WARNING: Using 'neigh_modify every 1 delay 0 check yes' setting during minimization (../min.cpp:187)
Per MPI rank memory allocation (min/avg/max) = 4.840 | 4.840 | 4.840 Mbytes
Step Temp E_pair E_mol TotEng Press 
       0            0            0 0.0022329499 0.0022329499 0.0029220386 
     100 3.701721e-08            0 2.5697232e-08 5.7426269e-08 1.8906135e-07 
     200 1.0404404e-09            0 9.7898683e-10 1.8707929e-09 2.8343288e-08 
     300 5.1948828e-11            0 2.8223163e-10 3.267592e-10 7.6608485e-09 
     400 5.3815094e-10            0 1.2421268e-10 5.8548491e-10 4.0144829e-09 
     500 8.1353208e-10            0 5.4551884e-11 7.5186509e-10 2.774204e-09 
     600 1.2121515e-09            0 2.379701e-11 1.062784e-09 2.2674793e-09 
     700 1.2102992e-09            0 1.0371441e-11 1.0477708e-09 -2.6291444e-10 
     800 1.4811212e-10            0 5.0524484e-12 1.320057e-10 -2.708709e-09 
     900 1.3000216e-10            0 2.483918e-12 1.1391434e-10 -2.2559835e-09 
    1000 1.0937822e-10            0 1.2226684e-12 9.4975427e-11 -4.613342e-10 
    1100 3.6412256e-10            0 5.9037437e-13 3.1269543e-10 6.055966e-10 
    1200 2.6401895e-10            0 2.8100167e-13 2.2658296e-10 2.0084495e-10 
    1300 2.2149072e-10            0 1.3169372e-13 1.8998088e-10 -4.474867e-11 
    1400 2.069006e-10            0 6.0621461e-14 1.7740399e-10 -4.7417385e-10 
    1500 1.4631127e-10            0 2.9010107e-14 1.2543867e-10 -1.958184e-09 
    1600 8.2903837e-11            0 1.2799147e-14 7.107323e-11 1.3192819e-09 
    1700 7.0637882e-11            0 5.1908985e-15 6.0551947e-11 -6.3748282e-10 
    1800 4.6742308e-11            0 2.2409465e-15 4.0067076e-11 -5.4083656e-10 
    1900 1.8356526e-11            0 9.6670917e-16 1.5735132e-11 -9.7318167e-11 
    2000 3.2586431e-11            0 3.7585538e-16 2.7931602e-11 2.7539356e-10 
Loop time of 12.3177 on 1 procs for 2000 steps with 7 atoms

2.8% CPU use with 1 MPI tasks x no OpenMP threads

Minimization stats:
  Stopping criterion = max iterations
  Energy initial, next-to-last, final = 
    0.00223294985618235 3.68030338378588e-16 3.75855381202162e-16
  Force two-norm initial, final = 0.4674128 6.6489650e-06
  Force max component initial, final = 0.21492951 3.0203242e-06
  Final line search alpha, max atom move = 0.0000000 0.0000000
  Iterations, force evaluations = 2000 2000

MPI task timing breakdown:
Section |  min time  |  avg time  |  max time  |%varavg| %total
---------------------------------------------------------------
Pair    | 0          | 0          | 0          |   0.0 |  0.00
Bond    | 0.002836   | 0.002836   | 0.002836   |   0.0 |  0.02
Neigh   | 0          | 0          | 0          |   0.0 |  0.00
Comm    | 0.001384   | 0.001384   | 0.001384   |   0.0 |  0.01
Output  | 0.19806    | 0.19806    | 0.19806    |   0.0 |  1.61
Modify  | 3.5886     | 3.5886     | 3.5886     |   0.0 | 29.13
Other   |            | 8.527      |            |       | 69.22

Nlocal:        7.00000 ave           7 max           7 min
Histogram: 1 0 0 0 0 0 0 0 0 0
Nghost:        0.00000 ave           0 max           0 min
Histogram: 1 0 0 0 0 0 0 0 0 0
Neighs:        0.00000 ave           0 max           0 min
Histogram: 1 0 0 0 0 0 0 0 0 0

Total # of neighbors = 0
Ave neighs/atom = 0.0000000
Ave special neighs/atom = 6.0000000
Neighbor list builds = 0
Dangerous builds = 0
WARNING: Using 'neigh_modify every 1 delay 0 check yes' setting during minimization (../min.cpp:187)
Per MPI rank memory allocation (min/avg/max) = 4.840 | 4.840 | 4.840 Mbytes
Step Temp E_pair E_mol TotEng Press 
    2000            0            0 3.7585538e-16 3.7585538e-16 2.7403579e-10 
    2100 1.1053909e-10            0 4.1582414e-15 9.4751947e-11 -2.0907848e-09 
    2200 8.4734293e-11            0 3.1802313e-16 7.2629712e-11 -1.9842131e-10 
    2300 5.4301913e-11            0 9.7216292e-16 4.6545469e-11 -1.449217e-09 
    2400 4.0681993e-11            0 9.0803512e-17 3.4870371e-11 -2.3544293e-10 
    2500 3.7334087e-11            0 7.3754452e-16 3.2001383e-11 1.3199872e-09 
    2600 2.0685321e-11            0 6.6153437e-16 1.7730937e-11 1.0251944e-09 
    2700 1.8732101e-11            0 4.9460818e-16 1.6056581e-11 1.0721123e-09 
    2800 7.3937507e-12            0 2.781627e-17 6.3375284e-12 1.9253225e-10 
    2900 5.8193613e-12            0 1.7310485e-17 4.9880413e-12 -9.5124077e-11 
    3000 4.7128308e-12            0 1.3507681e-17 4.0395827e-12 1.2501031e-10 
    3100 3.9986174e-12            0 1.5825293e-17 3.4274022e-12 1.5361877e-10 
    3200 2.9055543e-12            0 1.4430681e-17 2.4904895e-12 1.5395464e-10 
    3300 1.9477527e-12            0 9.8280719e-18 1.6695121e-12 1.1910924e-10 
    3400 1.279732e-12            0 8.4040399e-18 1.0969216e-12 1.1665589e-10 
    3500 8.0539421e-13            0 4.9763588e-18 6.9034287e-13 6.7331824e-11 
    3600 5.5583916e-13            0 2.7078123e-18 4.7643627e-13 5.5041294e-11 
    3700 3.792337e-13            0 2.6919659e-18 3.2506015e-13 6.7452937e-11 
    3800 2.585387e-13            0 1.1789772e-18 2.2160578e-13 3.5633153e-11 
    3900 1.6900543e-13            0 8.7756443e-19 1.4486267e-13 2.542751e-11 
    4000 1.1699834e-13            0 1.0591509e-18 1.0028535e-13 -1.0968067e-11 
Loop time of 5.75432 on 1 procs for 2000 steps with 7 atoms

4.4% CPU use with 1 MPI tasks x no OpenMP threads

Minimization stats:
  Stopping criterion = max iterations
  Energy initial, next-to-last, final = 
    3.75855381202162e-16 1.7387173107205e-18 1.05915094437676e-18
  Force two-norm initial, final = 8.6232361e-06 7.6109948e-07
  Force max component initial, final = 3.9157320e-06 3.4685999e-07
  Final line search alpha, max atom move = 0.0000000 0.0000000
  Iterations, force evaluations = 2000 2000

MPI task timing breakdown:
Section |  min time  |  avg time  |  max time  |%varavg| %total
---------------------------------------------------------------
Pair    | 0          | 0          | 0          |   0.0 |  0.00
Bond    | 0.002328   | 0.002328   | 0.002328   |   0.0 |  0.04
Neigh   | 0          | 0          | 0          |   0.0 |  0.00
Comm    | 0.001138   | 0.001138   | 0.001138   |   0.0 |  0.02
Output  | 0.048752   | 0.048752   | 0.048752   |   0.0 |  0.85
Modify  | 1.7185     | 1.7185     | 1.7185     |   0.0 | 29.87
Other   |            | 3.984      |            |       | 69.23

Nlocal:        7.00000 ave           7 max           7 min
Histogram: 1 0 0 0 0 0 0 0 0 0
Nghost:        0.00000 ave           0 max           0 min
Histogram: 1 0 0 0 0 0 0 0 0 0
Neighs:        0.00000 ave           0 max           0 min
Histogram: 1 0 0 0 0 0 0 0 0 0

Total # of neighbors = 0
Ave neighs/atom = 0.0000000
Ave special neighs/atom = 6.0000000
Neighbor list builds = 0
Dangerous builds = 0
Total wall time: 0:00:18
