LAMMPS (29 Oct 2020)
Processor partition = 8
# LAMMPS task file for neb

      dimension   2
     atom_style bond
     boundary   f f p
     bond_style harmonic
     atom_modify	map array sort 0 0.0

     variable  u uloop 20
     read_data  src/polygon/lammps_util/script/test_healty.lj
Reading data file ...
  orthogonal box = (-6.0000000 -6.0000000 -6.0000000) to (6.0000000 6.0000000 6.0000000)
  1 by 1 by 1 MPI processor grid
  reading atoms ...
  7 atoms
  scanning bonds ...
  3 = max bonds/atom
  reading bonds ...
  11 bonds
Finding 1-2 1-3 1-4 neighbors ...
  special bond factors lj:    0.0      0.0      0.0     
  special bond factors coul:  0.0      0.0      0.0     
     4 = max # of 1-2 neighbors
     8 = max # of 1-3 neighbors
    24 = max # of 1-4 neighbors
     6 = max # of special neighbors
  special bonds CPU = 0.000 seconds
  read_data CPU = 0.018 seconds
     timestep  0.1
     fix 1 all neb 1.0 parallel ideal

     thermo 100
     fix 2 all enforce2d
     dump 1 all atom 10 src/polygon/temp/dump.neb.$u
     dump 1 all atom 10 src/polygon/temp/dump.neb.9
      min_style quickmin
     neb 1e-08 0.0 2000 2000 40 final src/polygon/lammps_util/script/prion_neb_pos.lj
WARNING: Using 'neigh_modify every 1 delay 0 check yes' setting during minimization (../min.cpp:187)
Per MPI rank memory allocation (min/avg/max) = 4.840 | 4.840 | 4.840 Mbytes
Step Temp E_pair E_mol TotEng Press 
       0            0            0  0.013596169  0.013596169  0.005167916 
     100 9.6908143e-08            0 6.9123682e-08 1.521878e-07 9.4945382e-08 
     200 1.3757414e-09            0 6.5034348e-08 6.6213554e-08 3.7103345e-08 
     300 1.0406292e-09            0 6.0968736e-08 6.1860704e-08 3.2838212e-08 
     400 1.4182847e-10            0 5.756675e-08 5.7688318e-08 3.154873e-08 
     500 5.6087283e-10            0 5.4453486e-08 5.4934234e-08 3.0494995e-08 
     600 8.5842576e-10            0 5.1396552e-08 5.2132346e-08 2.9441674e-08 
     700 1.0104259e-09            0 4.8555929e-08 4.9422008e-08 2.843833e-08 
     800 9.1291636e-10            0 4.5893815e-08 4.6676314e-08 2.7479168e-08 
     900 8.8343959e-11            0 4.3481319e-08 4.3557042e-08 2.6545764e-08 
    1000 1.8109325e-10            0 4.1100408e-08 4.1255631e-08 2.5679107e-08 
    1100 7.0324948e-10            0 3.8937065e-08 3.953985e-08 2.4847833e-08 
    1200 3.0613482e-10            0 3.6885721e-08 3.7148122e-08 2.4062773e-08 
    1300 7.8880476e-10            0 3.4975971e-08 3.5652089e-08 2.3285737e-08 
    1400 1.8182403e-10            0 3.3296411e-08 3.345226e-08 2.2586992e-08 
    1500 5.0443885e-11            0 3.1656898e-08 3.1700136e-08 2.1907455e-08 
    1600 9.9143843e-11            0 3.0142936e-08 3.0227917e-08 2.1274837e-08 
    1700 8.013972e-11            0 2.8641802e-08 2.8710493e-08 2.0634357e-08 
    1800 7.4856649e-11            0 2.7225632e-08 2.7289795e-08 2.0019762e-08 
    1900 1.5737642e-10            0 2.5926254e-08 2.6061148e-08 1.9449429e-08 
    2000 2.4544823e-10            0 2.4689557e-08 2.4899941e-08 1.8897494e-08 
Loop time of 0.5108 on 1 procs for 2000 steps with 7 atoms

21.4% CPU use with 1 MPI tasks x no OpenMP threads

Minimization stats:
  Stopping criterion = max iterations
  Energy initial, next-to-last, final = 
    0.0135961686010226 2.470356153576e-08 2.46895569115717e-08
  Force two-norm initial, final = 1.0818028 1.8838224e-05
  Force max component initial, final = 0.5641942 8.3813182e-06
  Final line search alpha, max atom move = 0.0000000 0.0000000
  Iterations, force evaluations = 2000 2000

MPI task timing breakdown:
Section |  min time  |  avg time  |  max time  |%varavg| %total
---------------------------------------------------------------
Pair    | 0          | 0          | 0          |   0.0 |  0.00
Bond    | 0.00111    | 0.00111    | 0.00111    |   0.0 |  0.22
Neigh   | 0          | 0          | 0          |   0.0 |  0.00
Comm    | 0.000439   | 0.000439   | 0.000439   |   0.0 |  0.09
Output  | 0.23201    | 0.23201    | 0.23201    |   0.0 | 45.42
Modify  | 0.089366   | 0.089366   | 0.089366   |   0.0 | 17.50
Other   |            | 0.1879     |            |       | 36.78

Nlocal:        7.00000 ave           7 max           7 min
Histogram: 1 0 0 0 0 0 0 0 0 0
Nghost:        0.00000 ave           0 max           0 min
Histogram: 1 0 0 0 0 0 0 0 0 0
Neighs:        0.00000 ave           0 max           0 min
Histogram: 1 0 0 0 0 0 0 0 0 0

Total # of neighbors = 0
Ave neighs/atom = 0.0000000
Ave special neighs/atom = 6.0000000
Neighbor list builds = 0
Dangerous builds = 0
WARNING: Using 'neigh_modify every 1 delay 0 check yes' setting during minimization (../min.cpp:187)
Per MPI rank memory allocation (min/avg/max) = 4.840 | 4.840 | 4.840 Mbytes
Step Temp E_pair E_mol TotEng Press 
    2000            0            0 2.4689557e-08 2.4689557e-08 1.8887267e-08 
    2100 1.7527898e-10            0 2.3556907e-08 2.3707146e-08 1.7913456e-08 
    2200 2.8677074e-10            0 2.2436503e-08 2.2682306e-08 1.7391139e-08 
    2300 2.9285665e-10            0 2.1407854e-08 2.1658874e-08 1.6910275e-08 
    2400 1.8433489e-10            0 2.0411711e-08 2.0569712e-08 1.6432485e-08 
    2500 2.9395884e-10            0 1.9442896e-08 1.969486e-08 1.5974539e-08 
    2600 4.7254319e-11            0 1.859128e-08 1.8631784e-08 1.5540183e-08 
    2700 4.3350728e-11            0 1.7722406e-08 1.7759563e-08 1.5105956e-08 
    2800 6.2138195e-11            0 1.6944878e-08 1.6998139e-08 1.4711789e-08 
    2900 4.544247e-11            0 1.6136114e-08 1.6175065e-08 1.4275422e-08 
    3000 5.8750085e-11            0 1.5416478e-08 1.5466835e-08 1.3894206e-08 
    3100 4.6593937e-11            0 1.4765594e-08 1.4805532e-08 1.3567542e-08 
    3200 5.8589247e-11            0 1.4141345e-08 1.4191564e-08 1.3229333e-08 
    3300 1.3095451e-10            0 1.353226e-08 1.3644507e-08 1.2896508e-08 
    3400 7.4367133e-11            0 1.2945388e-08 1.3009131e-08 1.2565338e-08 
    3500 1.2866926e-10            0 1.2388682e-08 1.249897e-08 1.2250528e-08 
    3600 1.9288181e-10            0 1.1853518e-08 1.2018845e-08 1.1957392e-08 
    3700 1.0580974e-10            0 1.1349537e-08 1.1440231e-08 1.167789e-08 
    3800 1.5747607e-10            0 1.0879488e-08 1.1014467e-08 1.136428e-08 
    3900 1.5383312e-11            0 1.0420083e-08 1.0433269e-08 1.1079922e-08 
    4000 8.7906567e-11            0 1.0018716e-08 1.0094064e-08 1.0834601e-08 
Loop time of 0.098431 on 1 procs for 2000 steps with 7 atoms

60.2% CPU use with 1 MPI tasks x no OpenMP threads

Minimization stats:
  Stopping criterion = max iterations
  Energy initial, next-to-last, final = 
    2.46895569115717e-08 1.00236691557356e-08 1.00187156251051e-08
  Force two-norm initial, final = 1.8798514e-05 1.1143971e-05
  Force max component initial, final = 8.4596423e-06 5.2381917e-06
  Final line search alpha, max atom move = 0.0000000 0.0000000
  Iterations, force evaluations = 2000 2000

MPI task timing breakdown:
Section |  min time  |  avg time  |  max time  |%varavg| %total
---------------------------------------------------------------
Pair    | 0          | 0          | 0          |   0.0 |  0.00
Bond    | 0.000767   | 0.000767   | 0.000767   |   0.0 |  0.78
Neigh   | 0          | 0          | 0          |   0.0 |  0.00
Comm    | 0.000202   | 0.000202   | 0.000202   |   0.0 |  0.21
Output  | 0.026739   | 0.026739   | 0.026739   |   0.0 | 27.17
Modify  | 0.024088   | 0.024088   | 0.024088   |   0.0 | 24.47
Other   |            | 0.04664    |            |       | 47.38

Nlocal:        7.00000 ave           7 max           7 min
Histogram: 1 0 0 0 0 0 0 0 0 0
Nghost:        0.00000 ave           0 max           0 min
Histogram: 1 0 0 0 0 0 0 0 0 0
Neighs:        0.00000 ave           0 max           0 min
Histogram: 1 0 0 0 0 0 0 0 0 0

Total # of neighbors = 0
Ave neighs/atom = 0.0000000
Ave special neighs/atom = 6.0000000
Neighbor list builds = 0
Dangerous builds = 0
Total wall time: 0:00:00
