# LAMMPS data file for rigid bodies 
 
      7     atoms
     11     bonds
     0     angles
     0     dihedrals

     2     atom types 
     11     bond types 
     0     angle types
     0     dihedral types

     -6     6 xlo xhi
     -6     6 ylo yhi
     -6     6 zlo zhi

Masses

     1     1
     2     1

Atoms

     1     1     2     0.0     0.0     0.0
     2     1     1     1.0     0.0     0.0
     3     1     1     0.42750350172834073     -0.8199071651514506     0.0
     4     1     1     -0.4325405062840383     -0.3096873063827009     0.0
     5     1     1     -0.745428389142027     0.640102761348398     0.0
     6     1     1     -0.24604273047442096     0.053997938603687304     0.0
     7     1     1     -0.08788310988302751     -0.14486430563235003     0.0

Bonds

     1     1     1     6
     2     2     5     6
     3     3     2     6
     4     4     3     6
     5     5     3     7
     6     6     4     7
     7     7     1     2
     8     8     2     3
     9     9     3     4
     10     10     4     5
     11     11     5     1

Bond Coeffs

     1     1     0.25189839736043607
     2     1     0.7700031813749133
     3     1     1.247212196677694
     4     1     1.1033470248674326
     5     1     0.8492974871127145
     6     1     0.38204102197313006
     7     1     1.0
     8     1     1.0
     9     1     0.9999999999999999
     10     1     1.0
     11     1     0.9825451788211682
