# LAMMPS data file for rigid bodies 
 
      7     atoms
     11     bonds
     0     angles
     0     dihedrals

     2     atom types 
     11     bond types 
     0     angle types
     0     dihedral types

     -6     6 xlo xhi
     -6     6 ylo yhi
     -6     6 zlo zhi

Masses

     1     1
     2     1

Atoms

     1     1     2     0.0     0.0     0.0
     2     1     1     1.0     0.0     0.0
     3     1     1     0.07804392168368046     0.38729444826332393     0.0
     4     1     1     -0.551220296205791     1.164485894487452     0.0
     5     1     1     -0.952952143039099     0.24872854494561003     0.0
     6     1     1     0.16054078900369817     0.840789465243536     0.0
     7     1     1     0.2637861202998004     -0.04842993740955798     0.0

Bonds

     1     1     4     6
     2     2     3     6
     3     3     2     6
     4     4     3     7
     5     5     1     7
     6     6     5     7
     7     7     1     2
     8     8     2     3
     9     9     3     4
     10     10     4     5
     11     11     5     1

Bond Coeffs

     1     1     0.7819099824940536
     2     1     0.4609375918098886
     3     1     1.188115605398332
     4     1     0.4736622262929149
     5     1     0.2681950336980804
     6     1     1.252499566909541
     7     1     1.0
     8     1     1.0
     9     1     1.0
     10     1     1.0
     11     1     0.9848774928860806
