# LAMMPS data file for rigid bodies 
 
      7     atoms
     11     bonds
     0     angles
     0     dihedrals

     2     atom types 
     11     bond types 
     0     angle types
     0     dihedral types

     -6     6 xlo xhi
     -6     6 ylo yhi
     -6     6 zlo zhi

Masses

     1     1
     2     1

Atoms

     1     1     2     0.0     0.0     0.0
     2     1     1     1.0     0.0     0.0
     3     1     1     0.9951131426504891     -0.9999880592413319     0.0
     4     1     1     0.125191918440144     -0.5067973621794608     0.0
     5     1     1     -0.8727509093995813     -0.44268720414461926     0.0
     6     1     1     0.646828017863861     -0.17489558049650436     0.0
     7     1     1     0.3219858126348304     -0.5461366413664103     0.0

Bonds

     1     1     1     6
     2     2     4     6
     3     3     2     6
     4     4     3     7
     5     5     4     7
     6     6     5     7
     7     7     1     2
     8     8     2     3
     9     9     3     4
     10     10     4     5
     11     11     5     1

Bond Coeffs

     1     1     0.6700559295841658
     2     1     0.6182742214473371
     3     1     0.39410520555199285
     4     1     0.8118383533198503
     5     1     0.20068735804543889
     6     1     1.199207080132133
     7     1     1.0
     8     1     1.0
     9     1     0.9999999999999999
     10     1     1.0
     11     1     0.9786041643949693
