LAMMPS (29 Oct 2020)
Processor partition = 66
Reading data file ...
  orthogonal box = (-6.0000000 -6.0000000 -6.0000000) to (6.0000000 6.0000000 6.0000000)
  1 by 1 by 1 MPI processor grid
  reading atoms ...
  7 atoms
  scanning bonds ...
  3 = max bonds/atom
  reading bonds ...
  11 bonds
Finding 1-2 1-3 1-4 neighbors ...
  special bond factors lj:    0.0      0.0      0.0     
  special bond factors coul:  0.0      0.0      0.0     
     4 = max # of 1-2 neighbors
     9 = max # of 1-3 neighbors
    28 = max # of 1-4 neighbors
     6 = max # of special neighbors
  special bonds CPU = 0.000 seconds
  read_data CPU = 0.105 seconds
WARNING: Using 'neigh_modify every 1 delay 0 check yes' setting during minimization (../min.cpp:187)
Setting up quickmin style minimization ...
  Unit style    : lj
  Current step  : 0
Per MPI rank memory allocation (min/avg/max) = 4.840 | 4.840 | 4.840 Mbytes
Step Temp E_pair E_mol TotEng Press 
       0            0            0  0.018997266  0.018997266 0.0079155156 
     100 6.2169186e-07            0 1.862856e-06 2.3957347e-06 8.1968196e-07 
     200 3.4286041e-07            0 6.2164617e-07 9.1552652e-07 4.3011527e-07 
     300 1.1241739e-08            0 1.6350897e-07 1.7314474e-07 1.9961313e-07 
     400 2.7301378e-08            0 3.8223892e-08 6.1625074e-08 9.4915982e-08 
     500 1.2729004e-08            0 7.970057e-09 1.8880632e-08 4.3291165e-08 
     600 1.3561155e-08            0 1.5790328e-09 1.320288e-08 2.1574607e-08 
     700 1.3174086e-08            0 3.0744331e-10 1.1599517e-08 6.2925021e-09 
     800 2.9384372e-09            0 7.4241463e-11 2.592902e-09 -1.8409848e-09 
     900 2.1909491e-09            0 1.8374537e-11 1.8963309e-09 -4.4039882e-09 
    1000 2.7906864e-09            0 4.630864e-12 2.3966478e-09  2.33234e-09 
    1100 4.3180724e-09            0 1.1690049e-12 3.7023739e-09 7.1228813e-09 
    1200 3.0058488e-09            0 3.0638559e-13 2.5767482e-09 5.2515776e-09 
    1300 2.4251337e-09            0 9.0127431e-14 2.0787761e-09 4.7723881e-09 
    1400 2.1818623e-09            0 3.4837295e-14 1.8702025e-09 5.2518549e-09 
    1500 1.4274752e-09            0 2.2812855e-14 1.223573e-09 5.6306065e-09 
    1600 8.8712773e-10            0 1.2499653e-14 7.6040769e-10 -3.2256744e-09 
    1700 7.6010571e-10            0 5.1795774e-15 6.5152436e-10 2.7147471e-09 
    1800 4.8038555e-10            0 2.4234167e-15 4.1176147e-10 6.0175354e-10 
    1900 2.0810187e-10            0 1.8766663e-15 1.7837491e-10 7.897013e-10 
    2000 3.1512512e-10            0 6.108057e-15 2.7011336e-10 3.5464898e-09 
Loop time of 12.318 on 1 procs for 2000 steps with 7 atoms

3.7% CPU use with 1 MPI tasks x no OpenMP threads

Minimization stats:
  Stopping criterion = max iterations
  Energy initial, next-to-last, final = 
    0.0189972661660579 4.57465259602022e-15 6.10805700223222e-15
  Force two-norm initial, final = 1.3763506 2.3081599e-05
  Force max component initial, final = 0.63550565 1.3878898e-05
  Final line search alpha, max atom move = 0.0000000 0.0000000
  Iterations, force evaluations = 2000 2000

MPI task timing breakdown:
Section |  min time  |  avg time  |  max time  |%varavg| %total
---------------------------------------------------------------
Pair    | 0          | 0          | 0          |   0.0 |  0.00
Bond    | 0.002946   | 0.002946   | 0.002946   |   0.0 |  0.02
Neigh   | 0          | 0          | 0          |   0.0 |  0.00
Comm    | 0.001564   | 0.001564   | 0.001564   |   0.0 |  0.01
Output  | 0.19671    | 0.19671    | 0.19671    |   0.0 |  1.60
Modify  | 3.6927     | 3.6927     | 3.6927     |   0.0 | 29.98
Other   |            | 8.424      |            |       | 68.39

Nlocal:        7.00000 ave           7 max           7 min
Histogram: 1 0 0 0 0 0 0 0 0 0
Nghost:        0.00000 ave           0 max           0 min
Histogram: 1 0 0 0 0 0 0 0 0 0
Neighs:        0.00000 ave           0 max           0 min
Histogram: 1 0 0 0 0 0 0 0 0 0

Total # of neighbors = 0
Ave neighs/atom = 0.0000000
Ave special neighs/atom = 6.0000000
Neighbor list builds = 0
Dangerous builds = 0
WARNING: Using 'neigh_modify every 1 delay 0 check yes' setting during minimization (../min.cpp:187)
Setting up quickmin style minimization ...
  Unit style    : lj
  Current step  : 2000
Per MPI rank memory allocation (min/avg/max) = 4.840 | 4.840 | 4.840 Mbytes
Step Temp E_pair E_mol TotEng Press 
    2000            0            0 6.108057e-15 6.108057e-15 3.5333596e-09 
    2100 6.4871357e-10            0 1.202686e-15 5.5604141e-10 -1.3302283e-09 
    2200 5.6021863e-10            0 1.4227519e-15 4.8018882e-10 -1.0628254e-09 
    2300 2.8638922e-10            0 9.3028374e-16 2.454774e-10 -7.6185063e-10 
    2400 4.0220563e-11            0 4.7286327e-16 3.4475241e-11 -4.7338132e-10 
    2500 1.5914897e-11            0 2.0859475e-16 1.3641549e-11 -2.7431914e-10 
    2600 1.8982796e-11            0 8.6146296e-17 1.6271054e-11 -1.8626511e-10 
    2700 2.0368449e-12            0 3.2162239e-17 1.7458993e-12 -9.4358305e-11 
    2800 5.7712513e-13            0 1.1928061e-17 4.9469061e-13 -5.9082473e-11 
    2900 3.6820747e-13            0 4.2852567e-18 3.1561069e-13 -3.1522603e-11 
    3000 7.5688056e-14            0 1.4933563e-18 6.487697e-14 -1.7136006e-11 
    3100 2.0228493e-14            0 4.5821752e-19 1.7339166e-14 -7.7652182e-12 
    3200 7.5797966e-16            0 1.1160229e-19 6.4980845e-16 -1.879893e-12 
    3300 1.5295224e-15            0 2.0261805e-20 1.3110395e-15 1.7135616e-12 
    3400 5.2705881e-15            0 9.9934202e-21 4.5176569e-15 3.7043669e-12 
    3500 7.0548377e-15            0  1.80682e-20 6.0470218e-15 4.6671525e-12 
    3600 7.649705e-15            0 2.555394e-20 6.5569155e-15 4.9827653e-12 
    3700 7.1021163e-15            0 2.8626592e-20 6.0875569e-15 4.9200038e-12 
    3800 5.9665501e-15            0 2.7946819e-20 5.1142137e-15 4.6418241e-12 
    3900 4.6893517e-15            0 2.5033392e-20 4.0194693e-15 4.2557854e-12 
    4000 3.5975323e-15            0 2.1147897e-20 3.0836203e-15 3.8226351e-12 
Loop time of 5.7447 on 1 procs for 2000 steps with 7 atoms

5.9% CPU use with 1 MPI tasks x no OpenMP threads

Minimization stats:
  Stopping criterion = max iterations
  Energy initial, next-to-last, final = 
    6.10805700223222e-15 2.11322626346824e-20 2.11478970020775e-20
  Force two-norm initial, final = 1.2031706e-05 1.0679558e-07
  Force max component initial, final = 7.3433452e-06 6.3281999e-08
  Final line search alpha, max atom move = 0.0000000 0.0000000
  Iterations, force evaluations = 2000 2000

MPI task timing breakdown:
Section |  min time  |  avg time  |  max time  |%varavg| %total
---------------------------------------------------------------
Pair    | 0          | 0          | 0          |   0.0 |  0.00
Bond    | 0.002315   | 0.002315   | 0.002315   |   0.0 |  0.04
Neigh   | 0          | 0          | 0          |   0.0 |  0.00
Comm    | 0.001342   | 0.001342   | 0.001342   |   0.0 |  0.02
Output  | 0.049638   | 0.049638   | 0.049638   |   0.0 |  0.86
Modify  | 1.7891     | 1.7891     | 1.7891     |   0.0 | 31.14
Other   |            | 3.902      |            |       | 67.93

Nlocal:        7.00000 ave           7 max           7 min
Histogram: 1 0 0 0 0 0 0 0 0 0
Nghost:        0.00000 ave           0 max           0 min
Histogram: 1 0 0 0 0 0 0 0 0 0
Neighs:        0.00000 ave           0 max           0 min
Histogram: 1 0 0 0 0 0 0 0 0 0

Total # of neighbors = 0
Ave neighs/atom = 0.0000000
Ave special neighs/atom = 6.0000000
Neighbor list builds = 0
Dangerous builds = 0
Total wall time: 0:00:18
