LAMMPS (29 Oct 2020)
Processor partition = 4
Reading data file ...
  orthogonal box = (-6.0000000 -6.0000000 -6.0000000) to (6.0000000 6.0000000 6.0000000)
  1 by 1 by 1 MPI processor grid
  reading atoms ...
  7 atoms
  scanning bonds ...
  3 = max bonds/atom
  reading bonds ...
  11 bonds
Finding 1-2 1-3 1-4 neighbors ...
  special bond factors lj:    0.0      0.0      0.0     
  special bond factors coul:  0.0      0.0      0.0     
     4 = max # of 1-2 neighbors
     8 = max # of 1-3 neighbors
    24 = max # of 1-4 neighbors
     6 = max # of special neighbors
  special bonds CPU = 0.000 seconds
  read_data CPU = 0.015 seconds
WARNING: Using 'neigh_modify every 1 delay 0 check yes' setting during minimization (../min.cpp:187)
Setting up quickmin style minimization ...
  Unit style    : lj
  Current step  : 0
Per MPI rank memory allocation (min/avg/max) = 4.840 | 4.840 | 4.840 Mbytes
Step Temp E_pair E_mol TotEng Press 
       0            0            0  0.019517704  0.019517704 0.0060502409 
     100 2.4867411e-07            0 1.3022826e-07 3.433775e-07 7.7793873e-07 
     200 9.5195685e-10            0 6.3332493e-08 6.4148456e-08 2.685369e-08 
     300 3.7882599e-10            0 6.1921152e-08 6.224586e-08 2.1137782e-09 
     400 5.4721195e-11            0 6.0613491e-08 6.0660395e-08 1.386414e-09 
     500 2.2635723e-10            0 5.9355484e-08 5.9549504e-08 1.3194201e-09 
     600 3.6267697e-10            0 5.8062653e-08 5.8373519e-08 1.281647e-09 
     700   4.4641e-10            0 5.6805428e-08 5.7188066e-08 1.244468e-09 
     800 4.2136826e-10            0 5.5573604e-08 5.5934777e-08 1.1998927e-09 
     900 4.2545634e-11            0 5.4408217e-08 5.4444685e-08 1.1495189e-09 
    1000 9.0811984e-11            0 5.3208082e-08 5.3285921e-08 1.1026992e-09 
    1100 3.6825933e-10            0 5.2070528e-08 5.2386179e-08 1.0846448e-09 
    1200 1.6670423e-10            0 5.0946696e-08 5.1089586e-08 1.0274281e-09 
    1300 4.4765667e-10            0 4.9857326e-08 5.0241032e-08 1.0151329e-09 
    1400 1.070292e-10            0 4.886197e-08 4.8953709e-08 9.6530507e-10 
    1500 3.077074e-11            0 4.785385e-08 4.7880225e-08 9.2747846e-10 
    1600 6.2758149e-11            0 4.6888315e-08 4.6942108e-08 8.9570271e-10 
    1700 5.2630158e-11            0 4.5895463e-08 4.5940574e-08 8.6098042e-10 
    1800 5.0972455e-11            0 4.4923749e-08 4.496744e-08 8.2721468e-10 
    1900 1.1092399e-10            0 4.3999795e-08 4.4094873e-08 7.9751157e-10 
    2000 1.7901872e-10            0 4.308934e-08 4.3242785e-08 7.6853964e-10 
Loop time of 0.51073 on 1 procs for 2000 steps with 7 atoms

19.1% CPU use with 1 MPI tasks x no OpenMP threads

Minimization stats:
  Stopping criterion = max iterations
  Energy initial, next-to-last, final = 
    0.0195177043654993 4.3099828882259e-08 4.30893403192134e-08
  Force two-norm initial, final = 1.2306329 1.6091452e-05
  Force max component initial, final = 0.71200729 9.0419236e-06
  Final line search alpha, max atom move = 0.0000000 0.0000000
  Iterations, force evaluations = 2000 2000

MPI task timing breakdown:
Section |  min time  |  avg time  |  max time  |%varavg| %total
---------------------------------------------------------------
Pair    | 0          | 0          | 0          |   0.0 |  0.00
Bond    | 0.001068   | 0.001068   | 0.001068   |   0.0 |  0.21
Neigh   | 2e-06      | 2e-06      | 2e-06      |   0.0 |  0.00
Comm    | 0.000426   | 0.000426   | 0.000426   |   0.0 |  0.08
Output  | 0.23169    | 0.23169    | 0.23169    |   0.0 | 45.37
Modify  | 0.089001   | 0.089001   | 0.089001   |   0.0 | 17.43
Other   |            | 0.1885     |            |       | 36.92

Nlocal:        7.00000 ave           7 max           7 min
Histogram: 1 0 0 0 0 0 0 0 0 0
Nghost:        0.00000 ave           0 max           0 min
Histogram: 1 0 0 0 0 0 0 0 0 0
Neighs:        0.00000 ave           0 max           0 min
Histogram: 1 0 0 0 0 0 0 0 0 0

Total # of neighbors = 0
Ave neighs/atom = 0.0000000
Ave special neighs/atom = 6.0000000
Neighbor list builds = 1
Dangerous builds = 0
WARNING: Using 'neigh_modify every 1 delay 0 check yes' setting during minimization (../min.cpp:187)
Setting up quickmin style minimization ...
  Unit style    : lj
  Current step  : 2000
Per MPI rank memory allocation (min/avg/max) = 4.840 | 4.840 | 4.840 Mbytes
Step Temp E_pair E_mol TotEng Press 
    2000            0            0 4.308934e-08 4.308934e-08 7.6108052e-10 
    2100 1.4696979e-10            0 4.2338625e-08  4.24646e-08 4.0356469e-09 
    2200 2.4942173e-10            0 4.1568929e-08 4.1782719e-08 3.9842744e-09 
    2300 2.6396378e-10            0 4.0836077e-08 4.1062332e-08 3.9227254e-09 
    2400 1.7226035e-10            0 4.0100564e-08 4.0248216e-08 3.8560628e-09 
    2500 2.8491543e-10            0 3.9358904e-08 3.9603117e-08 3.7968253e-09 
    2600 4.7366183e-11            0 3.8683838e-08 3.8724438e-08 3.7284973e-09 
    2700 4.5021975e-11            0 3.7971049e-08 3.8009639e-08 3.6660969e-09 
    2800 6.6696749e-11            0 3.7311033e-08 3.7368201e-08 3.6088277e-09 
    2900 5.0444305e-11            0 3.660056e-08 3.6643797e-08 3.5447076e-09 
    3000 6.7449261e-11            0 3.594627e-08 3.6004084e-08 3.4874097e-09 
    3100 5.5272442e-11            0 3.5335198e-08 3.5382574e-08 3.4318459e-09 
    3200 7.1685925e-11            0 3.4730677e-08 3.4792122e-08 3.377717e-09 
    3300 1.6531136e-10            0 3.4122184e-08 3.4263879e-08 3.3260216e-09 
    3400 9.6880913e-11            0 3.3517206e-08 3.3600247e-08 3.2676146e-09 
    3500 1.7287153e-10            0 3.2925158e-08 3.3073334e-08 3.2159488e-09 
    3600 2.6732918e-10            0 3.2338151e-08 3.256729e-08 3.1652156e-09 
    3700 1.5129101e-10            0 3.176819e-08 3.1897868e-08 3.1072514e-09 
    3800 2.3155923e-10            0 3.1220552e-08 3.1419031e-08 3.0584808e-09 
    3900 2.3317685e-11            0 3.0669305e-08 3.0689292e-08 2.9976573e-09 
    4000 1.3678605e-10            0 3.017387e-08 3.0291115e-08 2.9548098e-09 
Loop time of 0.098426 on 1 procs for 2000 steps with 7 atoms

58.0% CPU use with 1 MPI tasks x no OpenMP threads

Minimization stats:
  Stopping criterion = max iterations
  Energy initial, next-to-last, final = 
    4.30893403192134e-08 3.01800666890026e-08 3.01738702729034e-08
  Force two-norm initial, final = 1.6781795e-05 1.3903460e-05
  Force max component initial, final = 9.4381617e-06 8.0990986e-06
  Final line search alpha, max atom move = 0.0000000 0.0000000
  Iterations, force evaluations = 2000 2000

MPI task timing breakdown:
Section |  min time  |  avg time  |  max time  |%varavg| %total
---------------------------------------------------------------
Pair    | 0          | 0          | 0          |   0.0 |  0.00
Bond    | 0.000715   | 0.000715   | 0.000715   |   0.0 |  0.73
Neigh   | 0          | 0          | 0          |   0.0 |  0.00
Comm    | 0.000232   | 0.000232   | 0.000232   |   0.0 |  0.24
Output  | 0.026537   | 0.026537   | 0.026537   |   0.0 | 26.96
Modify  | 0.023881   | 0.023881   | 0.023881   |   0.0 | 24.26
Other   |            | 0.04706    |            |       | 47.81

Nlocal:        7.00000 ave           7 max           7 min
Histogram: 1 0 0 0 0 0 0 0 0 0
Nghost:        0.00000 ave           0 max           0 min
Histogram: 1 0 0 0 0 0 0 0 0 0
Neighs:        0.00000 ave           0 max           0 min
Histogram: 1 0 0 0 0 0 0 0 0 0

Total # of neighbors = 0
Ave neighs/atom = 0.0000000
Ave special neighs/atom = 6.0000000
Neighbor list builds = 0
Dangerous builds = 0
Total wall time: 0:00:00
