LAMMPS (29 Oct 2020)
Processor partition = 61
Reading data file ...
  orthogonal box = (-6.0000000 -6.0000000 -6.0000000) to (6.0000000 6.0000000 6.0000000)
  1 by 1 by 1 MPI processor grid
  reading atoms ...
  7 atoms
  scanning bonds ...
  3 = max bonds/atom
  reading bonds ...
  11 bonds
Finding 1-2 1-3 1-4 neighbors ...
  special bond factors lj:    0.0      0.0      0.0     
  special bond factors coul:  0.0      0.0      0.0     
     4 = max # of 1-2 neighbors
     9 = max # of 1-3 neighbors
    28 = max # of 1-4 neighbors
     6 = max # of special neighbors
  special bonds CPU = 0.000 seconds
  read_data CPU = 0.055 seconds
WARNING: Using 'neigh_modify every 1 delay 0 check yes' setting during minimization (../min.cpp:187)
Setting up quickmin style minimization ...
  Unit style    : lj
  Current step  : 0
Per MPI rank memory allocation (min/avg/max) = 4.840 | 4.840 | 4.840 Mbytes
Step Temp E_pair E_mol TotEng Press 
       0            0            0  0.032617072  0.032617072  0.009985817 
     100 9.3339656e-07            0 4.3673565e-06 5.1674107e-06 1.1986566e-06 
     200 7.886731e-07            0 2.1981713e-06 2.8741768e-06 7.3147042e-07 
     300 4.4319491e-08            0 8.2827252e-07 8.6626066e-07 4.3835025e-07 
     400 1.3328389e-07            0 2.4257172e-07 3.5681505e-07 2.4610027e-07 
     500 4.5513315e-08            0 5.7545117e-08 9.655653e-08 1.1858496e-07 
     600 3.0634564e-08            0 1.2258371e-08 3.8516569e-08 5.6870643e-08 
     700 2.7656885e-08            0 2.496552e-09 2.6202453e-08 2.1818128e-08 
     800 8.973797e-09            0 6.1904427e-10 8.3108703e-09 8.3097176e-09 
     900 5.4587104e-09            0 1.5565984e-10 4.8345545e-09 -1.3369081e-09 
    1000 7.4540365e-09            0 3.9450334e-11 6.4286245e-09 8.732637e-09 
    1100 8.7111887e-09            0 9.7469363e-12 7.4764801e-09 1.1927631e-08 
    1200 5.9763654e-09            0 2.412274e-12 5.1250112e-09 8.5377486e-09 
    1300 4.7438801e-09            0 6.2108382e-13 4.066804e-09 7.5118532e-09 
    1400 4.178637e-09            0 1.8224583e-13 3.5818711e-09 8.0350655e-09 
    1500 2.5967899e-09            0 7.670597e-14 2.2258966e-09 8.1639907e-09 
    1600 1.7117299e-09            0 3.6114444e-14 1.4672332e-09 -4.8402654e-09 
    1700 1.4752051e-09            0 1.4220504e-14 1.2644758e-09 4.1589503e-09 
    1800 9.0552016e-10            0 6.2564235e-15 7.761664e-10 8.1993707e-10 
    1900 4.1895093e-10            0 4.542043e-15 3.5910534e-10 1.2611785e-09 
    2000 5.7381113e-10            0 1.3469881e-14 4.9185158e-10 5.2044624e-09 
Loop time of 12.3172 on 1 procs for 2000 steps with 7 atoms

3.8% CPU use with 1 MPI tasks x no OpenMP threads

Minimization stats:
  Stopping criterion = max iterations
  Energy initial, next-to-last, final = 
    0.0326170724452977 1.01896125891959e-14 1.34698810650042e-14
  Force two-norm initial, final = 1.8246282 3.3092179e-05
  Force max component initial, final = 0.8752361 1.9495539e-05
  Final line search alpha, max atom move = 0.0000000 0.0000000
  Iterations, force evaluations = 2000 2000

MPI task timing breakdown:
Section |  min time  |  avg time  |  max time  |%varavg| %total
---------------------------------------------------------------
Pair    | 0          | 0          | 0          |   0.0 |  0.00
Bond    | 0.00306    | 0.00306    | 0.00306    |   0.0 |  0.02
Neigh   | 2e-06      | 2e-06      | 2e-06      |   0.0 |  0.00
Comm    | 0.001502   | 0.001502   | 0.001502   |   0.0 |  0.01
Output  | 0.19765    | 0.19765    | 0.19765    |   0.0 |  1.60
Modify  | 3.8213     | 3.8213     | 3.8213     |   0.0 | 31.02
Other   |            | 8.294      |            |       | 67.33

Nlocal:        7.00000 ave           7 max           7 min
Histogram: 1 0 0 0 0 0 0 0 0 0
Nghost:        0.00000 ave           0 max           0 min
Histogram: 1 0 0 0 0 0 0 0 0 0
Neighs:        0.00000 ave           0 max           0 min
Histogram: 1 0 0 0 0 0 0 0 0 0

Total # of neighbors = 0
Ave neighs/atom = 0.0000000
Ave special neighs/atom = 6.0000000
Neighbor list builds = 1
Dangerous builds = 0
WARNING: Using 'neigh_modify every 1 delay 0 check yes' setting during minimization (../min.cpp:187)
Setting up quickmin style minimization ...
  Unit style    : lj
  Current step  : 2000
Per MPI rank memory allocation (min/avg/max) = 4.840 | 4.840 | 4.840 Mbytes
Step Temp E_pair E_mol TotEng Press 
    2000            0            0 1.3469881e-14 1.3469881e-14 5.1805536e-09 
    2100 1.2449707e-09            0 2.7251813e-15 1.0671205e-09 -1.9974718e-09 
    2200 1.0745797e-09            0 3.214424e-15 9.2107149e-10 -1.5940209e-09 
    2300 5.4913545e-10            0 2.1028042e-15 4.7068963e-10 -1.143388e-09 
    2400 7.7084133e-11            0 1.0693343e-15 6.6073183e-11 -7.1181788e-10 
    2500 3.0526818e-11            0 4.7205613e-16 2.6166316e-11 -4.1283535e-10 
    2600 3.6407748e-11            0 1.9512195e-16 3.1206836e-11 -2.8085286e-10 
    2700 3.9034087e-12            0 7.2834055e-17 3.3458517e-12 -1.4183196e-10 
    2800 1.1050808e-12            0 2.7017573e-17 9.4723912e-13 -8.8801389e-11 
    2900 7.0494386e-13            0 9.7053839e-18 6.042473e-13 -4.7190247e-11 
    3000 1.4475873e-13            0 3.3825201e-18 1.2408229e-13 -2.5632687e-11 
    3100 3.8598438e-14            0 1.0375771e-18 3.3085413e-14 -1.1495121e-11 
    3200 1.4137123e-15            0 2.5267603e-19 1.2120061e-15 -2.6107807e-12 
    3300 2.982455e-15            0 4.6102707e-20 2.5564361e-15 2.7757546e-12 
    3400 1.0165134e-14            0 2.291836e-20 8.7129953e-15 5.7035029e-12 
    3500 1.3559153e-14            0 4.1123329e-20 1.1622172e-14 7.0863838e-12 
    3600 1.4670794e-14            0 5.7968191e-20 1.2575024e-14 7.5119484e-12 
    3700 1.3602852e-14            0 6.4852878e-20 1.1659653e-14 7.3873946e-12 
    3800 1.141983e-14            0  6.32843e-20 9.7884886e-15 6.9564413e-12 
    3900 8.9723192e-15            0 5.6683163e-20 7.690616e-15 6.374114e-12 
    4000 6.8828636e-15            0 4.788949e-20 5.8996453e-15 5.725879e-12 
Loop time of 5.75066 on 1 procs for 2000 steps with 7 atoms

6.0% CPU use with 1 MPI tasks x no OpenMP threads

Minimization stats:
  Stopping criterion = max iterations
  Energy initial, next-to-last, final = 
    1.34698810650042e-14 4.79900858801853e-20 4.78894896751228e-20
  Force two-norm initial, final = 1.7792780e-05 1.4801370e-07
  Force max component initial, final = 1.0658878e-05 8.5728023e-08
  Final line search alpha, max atom move = 0.0000000 0.0000000
  Iterations, force evaluations = 2000 2000

MPI task timing breakdown:
Section |  min time  |  avg time  |  max time  |%varavg| %total
---------------------------------------------------------------
Pair    | 0          | 0          | 0          |   0.0 |  0.00
Bond    | 0.002535   | 0.002535   | 0.002535   |   0.0 |  0.04
Neigh   | 0          | 0          | 0          |   0.0 |  0.00
Comm    | 0.001221   | 0.001221   | 0.001221   |   0.0 |  0.02
Output  | 0.050772   | 0.050772   | 0.050772   |   0.0 |  0.88
Modify  | 1.8325     | 1.8325     | 1.8325     |   0.0 | 31.87
Other   |            | 3.864      |            |       | 67.19

Nlocal:        7.00000 ave           7 max           7 min
Histogram: 1 0 0 0 0 0 0 0 0 0
Nghost:        0.00000 ave           0 max           0 min
Histogram: 1 0 0 0 0 0 0 0 0 0
Neighs:        0.00000 ave           0 max           0 min
Histogram: 1 0 0 0 0 0 0 0 0 0

Total # of neighbors = 0
Ave neighs/atom = 0.0000000
Ave special neighs/atom = 6.0000000
Neighbor list builds = 0
Dangerous builds = 0
Total wall time: 0:00:18
