LAMMPS (29 Oct 2020)
Processor partition = 53
Reading data file ...
  orthogonal box = (-6.0000000 -6.0000000 -6.0000000) to (6.0000000 6.0000000 6.0000000)
  1 by 1 by 1 MPI processor grid
  reading atoms ...
  7 atoms
  scanning bonds ...
  3 = max bonds/atom
  reading bonds ...
  11 bonds
Finding 1-2 1-3 1-4 neighbors ...
  special bond factors lj:    0.0      0.0      0.0     
  special bond factors coul:  0.0      0.0      0.0     
     4 = max # of 1-2 neighbors
     9 = max # of 1-3 neighbors
    28 = max # of 1-4 neighbors
     6 = max # of special neighbors
  special bonds CPU = 0.000 seconds
  read_data CPU = 0.060 seconds
WARNING: Using 'neigh_modify every 1 delay 0 check yes' setting during minimization (../min.cpp:187)
Setting up quickmin style minimization ...
  Unit style    : lj
  Current step  : 0
Per MPI rank memory allocation (min/avg/max) = 4.840 | 4.840 | 4.840 Mbytes
Step Temp E_pair E_mol TotEng Press 
       0            0            0  0.054250896  0.054250896  0.012266917 
     100 8.584011e-07            0 8.6497608e-06 9.3855332e-06 1.1155426e-06 
     200 1.9753265e-07            0 7.676145e-06 7.8454587e-06 4.681498e-07 
     300 3.2505046e-08            0 7.1260677e-06 7.1539291e-06 4.2858744e-07 
     400 4.1563508e-07            0 6.2075179e-06 6.5637765e-06 5.5356564e-07 
     500 4.9550763e-07            0 4.8192139e-06 5.2439347e-06 6.6238875e-07 
     600 4.697717e-07            0 3.2243868e-06 3.6270482e-06 6.8755529e-07 
     700 3.871298e-07            0 1.8667773e-06 2.1986029e-06 6.1502314e-07 
     800 1.174871e-07            0 1.0642118e-06 1.164915e-06 4.9628475e-07 
     900 7.1741925e-08            0  5.85374e-07 6.4686708e-07 3.9065634e-07 
    1000 3.4402715e-08            0 3.1996601e-07 3.4945405e-07 2.8568579e-07 
    1100 1.2813717e-08            0 1.7552697e-07 1.8651015e-07 2.2660062e-07 
    1200 8.7332933e-09            0 9.9181325e-08  1.06667e-07 1.7598432e-07 
    1300 5.9460298e-09            0 5.8430519e-08 6.3527116e-08 1.3742948e-07 
    1400 3.8539332e-09            0 3.6019678e-08 3.932305e-08 1.0781072e-07 
    1500 4.3348188e-09            0 2.3241516e-08 2.6957075e-08 7.6038341e-08 
    1600 8.0265115e-09            0 1.5663209e-08 2.2543076e-08 6.922764e-08 
    1700 1.431213e-09            0 1.0958987e-08 1.2185741e-08 6.205619e-08 
    1800 2.7410868e-09            0 7.8569322e-09 1.0206435e-08 4.7580747e-08 
    1900 8.4379329e-10            0 5.7813879e-09 6.5046393e-09 4.6208067e-08 
    2000 6.942157e-10            0 4.3247203e-09 4.9197624e-09 3.3694558e-08 
Loop time of 12.3179 on 1 procs for 2000 steps with 7 atoms

3.7% CPU use with 1 MPI tasks x no OpenMP threads

Minimization stats:
  Stopping criterion = max iterations
  Energy initial, next-to-last, final = 
    0.0542508962230132 4.34688250477353e-09 4.32472034904226e-09
  Force two-norm initial, final = 2.3937247 6.0681127e-05
  Force max component initial, final = 1.2097571 3.2357511e-05
  Final line search alpha, max atom move = 0.0000000 0.0000000
  Iterations, force evaluations = 2000 2000

MPI task timing breakdown:
Section |  min time  |  avg time  |  max time  |%varavg| %total
---------------------------------------------------------------
Pair    | 0          | 0          | 0          |   0.0 |  0.00
Bond    | 0.0028     | 0.0028     | 0.0028     |   0.0 |  0.02
Neigh   | 3e-06      | 3e-06      | 3e-06      |   0.0 |  0.00
Comm    | 0.001353   | 0.001353   | 0.001353   |   0.0 |  0.01
Output  | 0.1931     | 0.1931     | 0.1931     |   0.0 |  1.57
Modify  | 3.8418     | 3.8418     | 3.8418     |   0.0 | 31.19
Other   |            | 8.279      |            |       | 67.21

Nlocal:        7.00000 ave           7 max           7 min
Histogram: 1 0 0 0 0 0 0 0 0 0
Nghost:        0.00000 ave           0 max           0 min
Histogram: 1 0 0 0 0 0 0 0 0 0
Neighs:        0.00000 ave           0 max           0 min
Histogram: 1 0 0 0 0 0 0 0 0 0

Total # of neighbors = 0
Ave neighs/atom = 0.0000000
Ave special neighs/atom = 6.0000000
Neighbor list builds = 1
Dangerous builds = 0
WARNING: Using 'neigh_modify every 1 delay 0 check yes' setting during minimization (../min.cpp:187)
Setting up quickmin style minimization ...
  Unit style    : lj
  Current step  : 2000
Per MPI rank memory allocation (min/avg/max) = 4.840 | 4.840 | 4.840 Mbytes
Step Temp E_pair E_mol TotEng Press 
    2000            0            0 4.3247203e-09 4.3247203e-09 3.3665633e-08 
    2100 3.5380545e-09            0 9.4864534e-11 3.1274827e-09 -1.4987897e-08 
    2200 2.2920386e-09            0 1.2427613e-09 3.2073659e-09 -2.4751404e-08 
    2300 1.1446424e-09            0 1.2704479e-09  2.25157e-09 -2.1440199e-08 
    2400 1.7528499e-10            0 7.6626795e-10 9.1651223e-10 -1.5426189e-08 
    2500 7.8142898e-11            0 3.5890066e-10 4.2588029e-10 -1.0108427e-08 
    2600 9.5147984e-11            0 1.4581984e-10 2.2737526e-10 -6.3019267e-09 
    2700 1.1390884e-11            0 5.4395575e-11 6.415919e-11 -3.7585953e-09 
    2800 3.2440267e-12            0 1.9613702e-11 2.2394296e-11 -2.2391145e-09 
    2900 2.2970302e-12            0 7.0464649e-12 9.0153479e-12 -1.323564e-09 
    3000 5.455291e-13            0 2.5056128e-12 2.9732092e-12 -7.7745712e-10 
    3100 2.1638705e-13            0 8.2207576e-13 1.0075504e-12 -4.3370745e-10 
    3200 5.4396257e-14            0 2.3148644e-13 2.781118e-13 -2.1859244e-10 
    3300 2.4840728e-14            0 4.8537096e-14 6.9829148e-14 -8.7716911e-11 
    3400 2.7244936e-14            0 4.2013809e-15 2.7554183e-14 -1.0547369e-11 
    3500 2.9924802e-14            0 6.9386845e-16 2.6343699e-14 3.3180316e-11 
    3600 3.0974906e-14            0 5.7328486e-15 3.2282768e-14 5.6480582e-11 
    3700 2.8405694e-14            0 1.0099118e-14 3.4446856e-14 6.7111964e-11 
    3800 2.3804963e-14            0 1.2082407e-14 3.2486661e-14 7.0009395e-11 
    3900 1.871715e-14            0 1.2112539e-14 2.815581e-14 6.8304331e-11 
    4000 1.4379674e-14            0 1.0977539e-14 2.3302974e-14 6.3985376e-11 
Loop time of 5.75807 on 1 procs for 2000 steps with 7 atoms

5.9% CPU use with 1 MPI tasks x no OpenMP threads

Minimization stats:
  Stopping criterion = max iterations
  Energy initial, next-to-last, final = 
    4.32472034904226e-09 1.09911834786997e-14 1.09775386157663e-14
  Force two-norm initial, final = 4.5122569e-05 2.1387632e-07
  Force max component initial, final = 2.0109358e-05 1.1462458e-07
  Final line search alpha, max atom move = 0.0000000 0.0000000
  Iterations, force evaluations = 2000 2000

MPI task timing breakdown:
Section |  min time  |  avg time  |  max time  |%varavg| %total
---------------------------------------------------------------
Pair    | 0          | 0          | 0          |   0.0 |  0.00
Bond    | 0.002365   | 0.002365   | 0.002365   |   0.0 |  0.04
Neigh   | 0          | 0          | 0          |   0.0 |  0.00
Comm    | 0.00114    | 0.00114    | 0.00114    |   0.0 |  0.02
Output  | 0.050247   | 0.050247   | 0.050247   |   0.0 |  0.87
Modify  | 1.8298     | 1.8298     | 1.8298     |   0.0 | 31.78
Other   |            | 3.875      |            |       | 67.29

Nlocal:        7.00000 ave           7 max           7 min
Histogram: 1 0 0 0 0 0 0 0 0 0
Nghost:        0.00000 ave           0 max           0 min
Histogram: 1 0 0 0 0 0 0 0 0 0
Neighs:        0.00000 ave           0 max           0 min
Histogram: 1 0 0 0 0 0 0 0 0 0

Total # of neighbors = 0
Ave neighs/atom = 0.0000000
Ave special neighs/atom = 6.0000000
Neighbor list builds = 0
Dangerous builds = 0
Total wall time: 0:00:18
