LAMMPS (29 Oct 2020)
Processor partition = 91
Reading data file ...
  orthogonal box = (-6.0000000 -6.0000000 -6.0000000) to (6.0000000 6.0000000 6.0000000)
  1 by 1 by 1 MPI processor grid
  reading atoms ...
  7 atoms
  scanning bonds ...
  3 = max bonds/atom
  reading bonds ...
  11 bonds
Finding 1-2 1-3 1-4 neighbors ...
  special bond factors lj:    0.0      0.0      0.0     
  special bond factors coul:  0.0      0.0      0.0     
     4 = max # of 1-2 neighbors
     9 = max # of 1-3 neighbors
    28 = max # of 1-4 neighbors
     6 = max # of special neighbors
  special bonds CPU = 0.000 seconds
  read_data CPU = 0.047 seconds
WARNING: Using 'neigh_modify every 1 delay 0 check yes' setting during minimization (../min.cpp:187)
Setting up quickmin style minimization ...
  Unit style    : lj
  Current step  : 0
Per MPI rank memory allocation (min/avg/max) = 4.840 | 4.840 | 4.840 Mbytes
Step Temp E_pair E_mol TotEng Press 
       0            0            0  0.025446853  0.025446853 0.0080448252 
     100  0.006969337            0 4.6626185e-05 0.0060203436 0.00019455243 
     200 6.4395428e-06            0 2.5671917e-07 5.7763273e-06 1.2099417e-06 
     300 4.4187841e-05            0 7.2188233e-08 3.7947481e-05 -1.2802954e-06 
     400 0.00020606169            0 3.4934762e-07 0.00017697365 1.756586e-05 
     500 0.0012297695            0 2.2927358e-06 0.0010563808 5.1621064e-05 
     600 0.00055964018            0 1.6701996e-06 0.00048136178 6.1345925e-05 
     700 0.00047550626            0 1.462529e-06 0.00040903932 4.109854e-05 
     800 0.0089553656            0 5.8151298e-06 0.0076818428 0.0003742165 
     900 4.9465649e-05            0 7.2100047e-08 4.2471227e-05 -6.9691165e-07 
    1000 0.00041908738            0 9.7356709e-07 0.00036019132 2.4206139e-05 
    1100 7.5297034e-05            0 4.9572614e-07 6.5036041e-05 5.7228108e-06 
    1200 4.2443292e-05            0 8.4531537e-07 3.722528e-05 1.6485216e-05 
    1300 0.00027631985            0 4.4972091e-06 0.0002413428 1.6797214e-05 
    1400 3.603515e-07            0 1.6157211e-06 1.9245939e-06 3.696989e-07 
    1500 0.00095007727            0 2.7975199e-06 0.00081714947 -2.1525602e-06 
    1600 2.5496352e-06            0 1.1940018e-06 3.3794035e-06 -3.5938918e-07 
    1700 1.956976e-08            0 1.179571e-07 1.3473118e-07 4.7260434e-07 
    1800 7.5600949e-06            0 9.8994398e-08 6.5790757e-06 6.8759807e-08 
    1900 1.5714958e-05            0 1.4829265e-07 1.3618257e-05 -1.465845e-07 
    2000 7.3819994e-05            0 7.8363514e-07 6.4057916e-05 3.9534556e-06 
Loop time of 9.3229 on 1 procs for 2000 steps with 7 atoms

4.6% CPU use with 1 MPI tasks x no OpenMP threads

Minimization stats:
  Stopping criterion = max iterations
  Energy initial, next-to-last, final = 
    0.0254468530437497 7.60693575670528e-07 7.8363513580621e-07
  Force two-norm initial, final = 1.1203949 0.051791209
  Force max component initial, final = 0.58152256 0.02666305
  Final line search alpha, max atom move = 0.0000000 0.0000000
  Iterations, force evaluations = 2000 2000

MPI task timing breakdown:
Section |  min time  |  avg time  |  max time  |%varavg| %total
---------------------------------------------------------------
Pair    | 0          | 0          | 0          |   0.0 |  0.00
Bond    | 0.003145   | 0.003145   | 0.003145   |   0.0 |  0.03
Neigh   | 0.00012    | 0.00012    | 0.00012    |   0.0 |  0.00
Comm    | 0.00145    | 0.00145    | 0.00145    |   0.0 |  0.02
Output  | 0.29825    | 0.29825    | 0.29825    |   0.0 |  3.20
Modify  | 2.8925     | 2.8925     | 2.8925     |   0.0 | 31.03
Other   |            | 6.127      |            |       | 65.73

Nlocal:        7.00000 ave           7 max           7 min
Histogram: 1 0 0 0 0 0 0 0 0 0
Nghost:        0.00000 ave           0 max           0 min
Histogram: 1 0 0 0 0 0 0 0 0 0
Neighs:        0.00000 ave           0 max           0 min
Histogram: 1 0 0 0 0 0 0 0 0 0

Total # of neighbors = 0
Ave neighs/atom = 0.0000000
Ave special neighs/atom = 6.0000000
Neighbor list builds = 54
Dangerous builds = 0
WARNING: Using 'neigh_modify every 1 delay 0 check yes' setting during minimization (../min.cpp:187)
Setting up quickmin style minimization ...
  Unit style    : lj
  Current step  : 2000
Per MPI rank memory allocation (min/avg/max) = 4.840 | 4.840 | 4.840 Mbytes
Step Temp E_pair E_mol TotEng Press 
    2000            0            0 7.8363514e-07 7.8363514e-07 8.7762254e-07 
    2100 0.0017005266            0 4.4919756e-06 0.0014620862 0.00011676184 
    2200 0.0015795133            0 2.9121206e-05 0.0013829897 3.9395832e-05 
    2300 1.0719153e-07            0 1.2042307e-07 2.1230152e-07 1.4416691e-07 
    2400 7.718165e-05            0 1.5318504e-06 6.768755e-05 -7.8829109e-06 
    2500 0.0015183055            0 6.6816545e-06 0.0013080864 6.7460658e-06 
    2600 0.00014851245            0 7.9858983e-07 0.00012809498 1.3206385e-05 
    2700 9.5466319e-06            0 8.4849979e-07 9.0313272e-06 9.0086596e-07 
    2800 3.848808e-05            0 8.5670996e-07 3.3846492e-05 4.1016958e-07 
    2900 2.2285729e-05            0 8.4349445e-07 1.9945548e-05 1.9705303e-06 
    3000 2.102866e-08            0 9.0057687e-07 9.1860143e-07 -5.0532808e-08 
    3100 2.7032229e-07            0 9.0438605e-07 1.1360909e-06 2.7986687e-09 
    3200 3.6538999e-08            0 9.1146122e-07 9.4278036e-07 -3.8529179e-08 
    3300 2.6153849e-08            0 9.143025e-07 9.3672008e-07 -4.3346321e-08 
    3400 4.8723528e-08            0 9.1717532e-07 9.5893834e-07 -4.3501063e-08 
    3500 4.1728511e-08            0 9.1957242e-07 9.5533972e-07 -4.4620483e-08 
    3600 2.8209687e-08            0 9.2186207e-07 9.460418e-07 -4.6020012e-08 
    3700 1.3066883e-08            0 9.2399612e-07 9.351963e-07 -4.740057e-08 
    3800 1.7663106e-08            0 9.2600606e-07 9.4114586e-07 -4.7884523e-08 
    3900 3.5131683e-08            0 9.2788784e-07 9.5800072e-07 -4.7758484e-08 
    4000 1.0716262e-08            0 9.2953594e-07 9.387213e-07 -4.924786e-08 
Loop time of 7.65652 on 1 procs for 2000 steps with 7 atoms

5.6% CPU use with 1 MPI tasks x no OpenMP threads

Minimization stats:
  Stopping criterion = max iterations
  Energy initial, next-to-last, final = 
    7.8363513580621e-07 9.29521928638993e-07 9.29535935174707e-07
  Force two-norm initial, final = 0.054878118 0.0001709491
  Force max component initial, final = 0.028293525 9.4585167e-05
  Final line search alpha, max atom move = 0.0000000 0.0000000
  Iterations, force evaluations = 2000 2000

MPI task timing breakdown:
Section |  min time  |  avg time  |  max time  |%varavg| %total
---------------------------------------------------------------
Pair    | 0          | 0          | 0          |   0.0 |  0.00
Bond    | 0.003293   | 0.003293   | 0.003293   |   0.0 |  0.04
Neigh   | 2.7e-05    | 2.7e-05    | 2.7e-05    |   0.0 |  0.00
Comm    | 0.00147    | 0.00147    | 0.00147    |   0.0 |  0.02
Output  | 0.038643   | 0.038643   | 0.038643   |   0.0 |  0.50
Modify  | 2.4592     | 2.4592     | 2.4592     |   0.0 | 32.12
Other   |            | 5.154      |            |       | 67.31

Nlocal:        7.00000 ave           7 max           7 min
Histogram: 1 0 0 0 0 0 0 0 0 0
Nghost:        0.00000 ave           0 max           0 min
Histogram: 1 0 0 0 0 0 0 0 0 0
Neighs:        0.00000 ave           0 max           0 min
Histogram: 1 0 0 0 0 0 0 0 0 0

Total # of neighbors = 0
Ave neighs/atom = 0.0000000
Ave special neighs/atom = 6.0000000
Neighbor list builds = 14
Dangerous builds = 0
Total wall time: 0:00:17
