LAMMPS (29 Oct 2020)
Processor partition = 16
Reading data file ...
  orthogonal box = (-6.0000000 -6.0000000 -6.0000000) to (6.0000000 6.0000000 6.0000000)
  1 by 1 by 1 MPI processor grid
  reading atoms ...
  7 atoms
  scanning bonds ...
  3 = max bonds/atom
  reading bonds ...
  11 bonds
Finding 1-2 1-3 1-4 neighbors ...
  special bond factors lj:    0.0      0.0      0.0     
  special bond factors coul:  0.0      0.0      0.0     
     4 = max # of 1-2 neighbors
     9 = max # of 1-3 neighbors
    28 = max # of 1-4 neighbors
     6 = max # of special neighbors
  special bonds CPU = 0.000 seconds
  read_data CPU = 0.047 seconds
WARNING: Using 'neigh_modify every 1 delay 0 check yes' setting during minimization (../min.cpp:187)
Setting up quickmin style minimization ...
  Unit style    : lj
  Current step  : 0
Per MPI rank memory allocation (min/avg/max) = 4.840 | 4.840 | 4.840 Mbytes
Step Temp E_pair E_mol TotEng Press 
       0            0            0  0.027768045  0.027768045 0.0093191552 
     100 6.4370745e-07            0 5.4631314e-07 1.0980624e-06 7.027034e-07 
     200 2.7903159e-08            0 3.1223709e-08 5.5140702e-08 7.2876005e-08 
     300 9.3586766e-10            0 9.9843742e-09 1.0786546e-08 -1.0618206e-08 
     400 9.4625569e-09            0 4.5355665e-09 1.264633e-08 -1.272037e-08 
     500 1.3245365e-08            0 2.0490424e-09 1.3402213e-08 -8.3762033e-09 
     600 1.9547781e-08            0 9.1962972e-10 1.7674871e-08 -2.604976e-09 
     700 1.9499266e-08            0 4.118203e-10 1.7125477e-08 -1.2012789e-08 
     800 4.3519212e-09            0 2.0466594e-10 3.9348841e-09 -1.9717424e-08 
     900 3.4823249e-09            0 1.0224436e-10 3.0870942e-09 -1.9014443e-08 
    1000 4.9039029e-09            0 5.0841868e-11 4.2541872e-09 2.372403e-09 
    1100 6.8167187e-09            0 2.4705146e-11 5.8676069e-09 9.2648566e-09 
    1200 4.686618e-09            0 1.1758314e-11 4.0288594e-09 5.4903721e-09 
    1300 3.7417033e-09            0 5.4940163e-12 3.2126683e-09 5.3652263e-09 
    1400  3.35365e-09            0 2.5288492e-12 2.877086e-09 7.9751773e-09 
    1500 2.1489088e-09            0 1.2412716e-12 1.8431631e-09 1.5263627e-08 
    1600 1.3222929e-09            0 5.2999529e-13 1.1339239e-09 -7.3736328e-09 
    1700 1.171134e-09            0 2.215538e-13 1.0040507e-09 3.2551918e-09 
    1800 7.1857011e-10            0 9.5179075e-14 6.1601241e-10 2.2399668e-09 
    1900 3.1869751e-10            0 4.0879128e-14 2.7321017e-10 -6.0621806e-10 
    2000 4.763787e-10            0 5.7504898e-14 4.0838211e-10 9.3729066e-09 
Loop time of 12.3187 on 1 procs for 2000 steps with 7 atoms

2.8% CPU use with 1 MPI tasks x no OpenMP threads

Minimization stats:
  Stopping criterion = max iterations
  Energy initial, next-to-last, final = 
    0.0277680454400066 4.82566131464086e-14 5.75048977004512e-14
  Force two-norm initial, final = 1.6946838 2.8663774e-05
  Force max component initial, final = 0.84844615 1.3972254e-05
  Final line search alpha, max atom move = 0.0000000 0.0000000
  Iterations, force evaluations = 2000 2000

MPI task timing breakdown:
Section |  min time  |  avg time  |  max time  |%varavg| %total
---------------------------------------------------------------
Pair    | 0          | 0          | 0          |   0.0 |  0.00
Bond    | 0.002893   | 0.002893   | 0.002893   |   0.0 |  0.02
Neigh   | 0          | 0          | 0          |   0.0 |  0.00
Comm    | 0.001437   | 0.001437   | 0.001437   |   0.0 |  0.01
Output  | 0.21387    | 0.21387    | 0.21387    |   0.0 |  1.74
Modify  | 3.5856     | 3.5856     | 3.5856     |   0.0 | 29.11
Other   |            | 8.515      |            |       | 69.12

Nlocal:        7.00000 ave           7 max           7 min
Histogram: 1 0 0 0 0 0 0 0 0 0
Nghost:        0.00000 ave           0 max           0 min
Histogram: 1 0 0 0 0 0 0 0 0 0
Neighs:        0.00000 ave           0 max           0 min
Histogram: 1 0 0 0 0 0 0 0 0 0

Total # of neighbors = 0
Ave neighs/atom = 0.0000000
Ave special neighs/atom = 6.0000000
Neighbor list builds = 0
Dangerous builds = 0
WARNING: Using 'neigh_modify every 1 delay 0 check yes' setting during minimization (../min.cpp:187)
Setting up quickmin style minimization ...
  Unit style    : lj
  Current step  : 2000
Per MPI rank memory allocation (min/avg/max) = 4.840 | 4.840 | 4.840 Mbytes
Step Temp E_pair E_mol TotEng Press 
    2000            0            0 5.7504898e-14 5.7504898e-14 9.3530575e-09 
    2100 3.1283176e-09            0 8.1352793e-14 2.6814964e-09 1.3600482e-08 
    2200 1.5578486e-09            0 4.9361198e-15 1.3353038e-09 2.4993717e-09 
    2300 8.8293474e-10            0 3.3723378e-15 7.5680458e-10 -1.1491784e-09 
    2400 6.6495025e-10            0 1.0113667e-15 5.6995837e-10 8.589868e-11 
    2500 5.8471933e-10            0 5.8512214e-16 5.0118858e-10  1.03275e-09 
    2600 3.2140092e-10            0 5.6359274e-15 2.7549214e-10 -3.5966443e-09 
    2700 2.9185756e-10            0 1.2178364e-14 2.501758e-10 4.5487844e-09 
    2800 1.1054896e-10            0 2.3717336e-16 9.4756489e-11 6.1852894e-10 
    2900 8.5663019e-11            0 2.7421907e-16 7.3425719e-11 4.663452e-10 
    3000 7.1118897e-11            0 7.4582204e-17 6.0959129e-11 4.6547147e-10 
    3100 6.1877745e-11            0 1.4481845e-16 5.3038212e-11 5.3473487e-10 
    3200 4.3435535e-11            0 6.7759289e-17 3.7230526e-11 3.1137957e-11 
    3300 2.8263621e-11            0 2.6584157e-17 2.4225987e-11 -1.9420061e-10 
    3400 1.901197e-11            0 1.0829214e-16 1.6296083e-11 5.7079438e-10 
    3500 1.2177018e-11            0 9.5786129e-18 1.0437453e-11 1.4606356e-10 
    3600 8.6456092e-12            0 7.2880267e-18 7.4105295e-12 5.4479827e-11 
    3700 6.0716098e-12            0 9.9644926e-18 5.2042469e-12 7.5515865e-11 
    3800 4.2097146e-12            0 1.7733081e-17 3.6083445e-12 1.8610373e-10 
    3900 3.164658e-12            0 8.3777162e-18 2.7125724e-12 3.532125e-11 
    4000 2.5105353e-12            0 1.1355959e-17 2.1518988e-12 1.2345641e-10 
Loop time of 5.7498 on 1 procs for 2000 steps with 7 atoms

4.4% CPU use with 1 MPI tasks x no OpenMP threads

Minimization stats:
  Stopping criterion = max iterations
  Energy initial, next-to-last, final = 
    5.75048977004512e-14 1.00439845170237e-17 1.13559591198919e-17
  Force two-norm initial, final = 3.6539057e-05 2.7120830e-06
  Force max component initial, final = 1.7847954e-05 1.3323972e-06
  Final line search alpha, max atom move = 0.0000000 0.0000000
  Iterations, force evaluations = 2000 2000

MPI task timing breakdown:
Section |  min time  |  avg time  |  max time  |%varavg| %total
---------------------------------------------------------------
Pair    | 0          | 0          | 0          |   0.0 |  0.00
Bond    | 0.002363   | 0.002363   | 0.002363   |   0.0 |  0.04
Neigh   | 0          | 0          | 0          |   0.0 |  0.00
Comm    | 0.001177   | 0.001177   | 0.001177   |   0.0 |  0.02
Output  | 0.048702   | 0.048702   | 0.048702   |   0.0 |  0.85
Modify  | 1.7117     | 1.7117     | 1.7117     |   0.0 | 29.77
Other   |            | 3.986      |            |       | 69.32

Nlocal:        7.00000 ave           7 max           7 min
Histogram: 1 0 0 0 0 0 0 0 0 0
Nghost:        0.00000 ave           0 max           0 min
Histogram: 1 0 0 0 0 0 0 0 0 0
Neighs:        0.00000 ave           0 max           0 min
Histogram: 1 0 0 0 0 0 0 0 0 0

Total # of neighbors = 0
Ave neighs/atom = 0.0000000
Ave special neighs/atom = 6.0000000
Neighbor list builds = 0
Dangerous builds = 0
Total wall time: 0:00:18
