LAMMPS (29 Oct 2020)
Processor partition = 3
Reading data file ...
  orthogonal box = (-6.0000000 -6.0000000 -6.0000000) to (6.0000000 6.0000000 6.0000000)
  1 by 1 by 1 MPI processor grid
  reading atoms ...
  7 atoms
  scanning bonds ...
  3 = max bonds/atom
  reading bonds ...
  11 bonds
Finding 1-2 1-3 1-4 neighbors ...
  special bond factors lj:    0.0      0.0      0.0     
  special bond factors coul:  0.0      0.0      0.0     
     4 = max # of 1-2 neighbors
     9 = max # of 1-3 neighbors
    28 = max # of 1-4 neighbors
     6 = max # of special neighbors
  special bonds CPU = 0.000 seconds
  read_data CPU = 0.082 seconds
WARNING: Using 'neigh_modify every 1 delay 0 check yes' setting during minimization (../min.cpp:187)
Setting up quickmin style minimization ...
  Unit style    : lj
  Current step  : 0
Per MPI rank memory allocation (min/avg/max) = 4.840 | 4.840 | 4.840 Mbytes
Step Temp E_pair E_mol TotEng Press 
       0            0            0 0.0012781224 0.0012781224 0.0022310303 
     100 2.0532338e-08            0 1.4393163e-08 3.199231e-08 1.4192807e-07 
     200 6.2401407e-10            0 6.9539547e-10 1.2302647e-09 2.1883496e-08 
     300 3.1826671e-11            0 2.2636902e-10 2.5364902e-10 6.3592445e-09 
     400 3.1201034e-10            0 1.0035903e-10 3.6779646e-10 3.441608e-09 
     500 4.6132324e-10            0 4.4164312e-11 4.3958423e-10 2.354032e-09 
     600 6.8344024e-10            0 1.9307057e-11 6.0511297e-10 1.9286501e-09 
     700 6.7989747e-10            0 8.4365549e-12 5.9120582e-10 -2.2808122e-10 
     800 7.8978449e-11            0 4.1240342e-12 7.1819848e-11 -2.9637833e-09 
     900 7.1757614e-11            0 2.0380131e-12 6.354454e-11 -2.8987643e-09 
    1000 6.0195073e-11            0 1.0095585e-12 5.2605336e-11 -1.1349006e-09 
    1100 2.0535473e-10            0 4.9245329e-13 1.7651079e-10 1.3884861e-09 
    1200 1.4930325e-10            0 2.3834537e-13 1.2821256e-10 8.918408e-10 
    1300 1.2510743e-10            0 1.1469717e-13 1.0734964e-10 8.7656773e-10 
    1400 1.1652146e-10            0 5.5187758e-14 9.9930725e-11 1.2321483e-09 
    1500 8.1737371e-11            0 2.8686041e-14 7.008929e-11 2.3380694e-09 
    1600 4.6584044e-11            0 1.3017326e-14 3.9942198e-11 -8.1720076e-10 
    1700 3.9808313e-11            0 6.0559197e-15 3.4127467e-11 1.8802959e-10 
    1800 2.6244482e-11            0 2.8759701e-15 2.2498146e-11 1.340322e-10 
    1900 1.0198695e-11            0 1.3634907e-15 8.743102e-12 7.3624788e-11 
    2000 1.8170656e-11            0 6.3760748e-16 1.5575486e-11 -1.4123532e-10 
Loop time of 12.3176 on 1 procs for 2000 steps with 7 atoms

3.9% CPU use with 1 MPI tasks x no OpenMP threads

Minimization stats:
  Stopping criterion = max iterations
  Energy initial, next-to-last, final = 
    0.00127812240413898 6.42691351465353e-16 6.37607482608849e-16
  Force two-norm initial, final = 0.35278864 5.0197342e-06
  Force max component initial, final = 0.16092593 2.2490382e-06
  Final line search alpha, max atom move = 0.0000000 0.0000000
  Iterations, force evaluations = 2000 2000

MPI task timing breakdown:
Section |  min time  |  avg time  |  max time  |%varavg| %total
---------------------------------------------------------------
Pair    | 0          | 0          | 0          |   0.0 |  0.00
Bond    | 0.002832   | 0.002832   | 0.002832   |   0.0 |  0.02
Neigh   | 0          | 0          | 0          |   0.0 |  0.00
Comm    | 0.001326   | 0.001326   | 0.001326   |   0.0 |  0.01
Output  | 0.20293    | 0.20293    | 0.20293    |   0.0 |  1.65
Modify  | 3.8567     | 3.8567     | 3.8567     |   0.0 | 31.31
Other   |            | 8.254      |            |       | 67.01

Nlocal:        7.00000 ave           7 max           7 min
Histogram: 1 0 0 0 0 0 0 0 0 0
Nghost:        0.00000 ave           0 max           0 min
Histogram: 1 0 0 0 0 0 0 0 0 0
Neighs:        0.00000 ave           0 max           0 min
Histogram: 1 0 0 0 0 0 0 0 0 0

Total # of neighbors = 0
Ave neighs/atom = 0.0000000
Ave special neighs/atom = 6.0000000
Neighbor list builds = 0
Dangerous builds = 0
WARNING: Using 'neigh_modify every 1 delay 0 check yes' setting during minimization (../min.cpp:187)
Setting up quickmin style minimization ...
  Unit style    : lj
  Current step  : 2000
Per MPI rank memory allocation (min/avg/max) = 4.840 | 4.840 | 4.840 Mbytes
Step Temp E_pair E_mol TotEng Press 
    2000            0            0 6.3760748e-16 6.3760748e-16 -1.4199243e-10 
    2100 3.5271966e-11            0 1.1702282e-14 3.0244816e-11 4.1759171e-09 
    2200 3.9501704e-11            0 2.9721055e-16 3.3858901e-11 -2.3912461e-10 
    2300 2.7936621e-11            0 5.8702258e-16 2.3946262e-11 -9.2696715e-10 
    2400 2.2129436e-11            0 6.9677825e-17 1.8968158e-11 -1.0548695e-10 
    2500 2.0914331e-11            0 1.0620783e-16 1.7926676e-11 4.9279434e-10 
    2600 1.202042e-11            0 4.7864626e-16 1.0303696e-11 -8.6029678e-10 
    2700 1.1285264e-11            0 5.324863e-17 9.6731365e-12 3.7197393e-10 
    2800 4.5816895e-12            0 3.5833618e-17 3.9271982e-12 -1.8063418e-10 
    2900 3.6651203e-12            0 3.7289352e-17 3.141569e-12 2.5256996e-10 
    3000 2.9979824e-12            0 1.0207121e-17 2.5697094e-12 1.2757134e-10 
    3100 2.489709e-12            0 2.2459145e-17 2.1340588e-12 2.0791545e-10 
    3200 1.817031e-12            0 1.5508992e-17 1.5574707e-12 1.7493527e-10 
    3300 1.2292987e-12            0 1.0759146e-17 1.0536953e-12 1.4304593e-10 
    3400 8.1307706e-13            0 9.6018053e-18 6.969328e-13 1.3722062e-10 
    3500 5.183088e-13            0 2.300198e-18 4.4426699e-13 3.528029e-11 
    3600 3.6413385e-13            0 1.7344588e-18 3.1211646e-13 1.9119521e-11 
    3700 2.5376698e-13            0 1.3178714e-18 2.1751587e-13 1.7980013e-11 
    3800 1.743785e-13            0 1.257785e-18 1.4946855e-13 3.9395656e-11 
    3900 1.1471744e-13            0 1.0011516e-18 9.8330234e-14 3.6557979e-11 
    4000 7.8290276e-14            0 4.9396121e-19 6.7106445e-14 1.0639297e-11 
Loop time of 5.75517 on 1 procs for 2000 steps with 7 atoms

6.2% CPU use with 1 MPI tasks x no OpenMP threads

Minimization stats:
  Stopping criterion = max iterations
  Energy initial, next-to-last, final = 
    6.37607482608849e-16 5.52115351918718e-19 4.93961207236421e-19
  Force two-norm initial, final = 6.5004391e-06 5.3529403e-07
  Force max component initial, final = 2.9108847e-06 2.4150042e-07
  Final line search alpha, max atom move = 0.0000000 0.0000000
  Iterations, force evaluations = 2000 2000

MPI task timing breakdown:
Section |  min time  |  avg time  |  max time  |%varavg| %total
---------------------------------------------------------------
Pair    | 0          | 0          | 0          |   0.0 |  0.00
Bond    | 0.002449   | 0.002449   | 0.002449   |   0.0 |  0.04
Neigh   | 0          | 0          | 0          |   0.0 |  0.00
Comm    | 0.001171   | 0.001171   | 0.001171   |   0.0 |  0.02
Output  | 0.050317   | 0.050317   | 0.050317   |   0.0 |  0.87
Modify  | 1.8257     | 1.8257     | 1.8257     |   0.0 | 31.72
Other   |            | 3.875      |            |       | 67.34

Nlocal:        7.00000 ave           7 max           7 min
Histogram: 1 0 0 0 0 0 0 0 0 0
Nghost:        0.00000 ave           0 max           0 min
Histogram: 1 0 0 0 0 0 0 0 0 0
Neighs:        0.00000 ave           0 max           0 min
Histogram: 1 0 0 0 0 0 0 0 0 0

Total # of neighbors = 0
Ave neighs/atom = 0.0000000
Ave special neighs/atom = 6.0000000
Neighbor list builds = 0
Dangerous builds = 0
Total wall time: 0:00:18
