LAMMPS (29 Oct 2020)
Processor partition = 72
Reading data file ...
  orthogonal box = (-6.0000000 -6.0000000 -6.0000000) to (6.0000000 6.0000000 6.0000000)
  1 by 1 by 1 MPI processor grid
  reading atoms ...
  7 atoms
  scanning bonds ...
  3 = max bonds/atom
  reading bonds ...
  11 bonds
Finding 1-2 1-3 1-4 neighbors ...
  special bond factors lj:    0.0      0.0      0.0     
  special bond factors coul:  0.0      0.0      0.0     
     4 = max # of 1-2 neighbors
     9 = max # of 1-3 neighbors
    28 = max # of 1-4 neighbors
     6 = max # of special neighbors
  special bonds CPU = 0.000 seconds
  read_data CPU = 0.038 seconds
WARNING: Using 'neigh_modify every 1 delay 0 check yes' setting during minimization (../min.cpp:187)
Setting up quickmin style minimization ...
  Unit style    : lj
  Current step  : 0
Per MPI rank memory allocation (min/avg/max) = 4.840 | 4.840 | 4.840 Mbytes
Step Temp E_pair E_mol TotEng Press 
       0            0            0 0.0060384689 0.0060384689 0.0046919143 
     100 2.082885e-07            0 4.3482625e-07 6.1335925e-07 1.8293395e-07 
     200 7.2584628e-08            0 1.0337724e-07 1.6559263e-07  1.49999e-07 
     300 1.6990949e-09            0 2.230347e-08 2.3759837e-08 6.6610017e-08 
     400 4.4326644e-09            0 4.7161394e-09 8.5155661e-09 3.1558866e-08 
     500 2.8846915e-09            0 9.327252e-10 3.4053179e-09 1.4366614e-08 
     600 3.7863189e-09            0 1.7939912e-10 3.4248153e-09 7.6132641e-09 
     700 3.3490316e-09            0 3.428983e-11 2.9048884e-09 7.2023248e-10 
     800 1.9064628e-10            0 8.2132983e-12 1.716244e-10 -5.1754881e-09 
     900 3.5558824e-10            0 2.029622e-12 3.0681954e-10 -3.9150374e-09 
    1000 3.218681e-10            0 5.1510687e-13 2.7640205e-10 -1.4870311e-09 
    1100 1.1325232e-09            0 1.3329206e-13 9.708675e-10 3.0040465e-09 
    1200 8.2391639e-10            0 3.7147563e-14 7.062512e-10 2.3125748e-09 
    1300 6.8555315e-10            0 1.2299243e-14 5.8762928e-10 2.1779596e-09 
    1400 6.3238418e-10            0  5.74504e-15 5.4204933e-10 2.4575749e-09 
    1500 4.3517719e-10            0 4.7442594e-15 3.7301377e-10 2.7682937e-09 
    1600 2.5560551e-10            0 2.6123114e-15 2.1909305e-10 -1.5323903e-09 
    1700 2.1764149e-10            0 1.0928925e-15 1.8655094e-10 1.2641597e-09 
    1800 1.4161485e-10            0 5.2610497e-16 1.2138468e-10 3.1155137e-10 
    1900 5.7413938e-11            0 4.1299075e-16 4.921236e-11 3.5182244e-10 
    2000 9.5985396e-11            0 1.4162956e-15 8.2274612e-11 1.7215996e-09 
Loop time of 12.3171 on 1 procs for 2000 steps with 7 atoms

3.7% CPU use with 1 MPI tasks x no OpenMP threads

Minimization stats:
  Stopping criterion = max iterations
  Energy initial, next-to-last, final = 
    0.00603846885837021 1.05257395070718e-15 1.41629557977609e-15
  Force two-norm initial, final = 0.76604705 1.1993433e-05
  Force max component initial, final = 0.3365125 7.2855327e-06
  Final line search alpha, max atom move = 0.0000000 0.0000000
  Iterations, force evaluations = 2000 2000

MPI task timing breakdown:
Section |  min time  |  avg time  |  max time  |%varavg| %total
---------------------------------------------------------------
Pair    | 0          | 0          | 0          |   0.0 |  0.00
Bond    | 0.003345   | 0.003345   | 0.003345   |   0.0 |  0.03
Neigh   | 0          | 0          | 0          |   0.0 |  0.00
Comm    | 0.001438   | 0.001438   | 0.001438   |   0.0 |  0.01
Output  | 0.21281    | 0.21281    | 0.21281    |   0.0 |  1.73
Modify  | 3.7025     | 3.7025     | 3.7025     |   0.0 | 30.06
Other   |            | 8.397      |            |       | 68.17

Nlocal:        7.00000 ave           7 max           7 min
Histogram: 1 0 0 0 0 0 0 0 0 0
Nghost:        0.00000 ave           0 max           0 min
Histogram: 1 0 0 0 0 0 0 0 0 0
Neighs:        0.00000 ave           0 max           0 min
Histogram: 1 0 0 0 0 0 0 0 0 0

Total # of neighbors = 0
Ave neighs/atom = 0.0000000
Ave special neighs/atom = 6.0000000
Neighbor list builds = 0
Dangerous builds = 0
WARNING: Using 'neigh_modify every 1 delay 0 check yes' setting during minimization (../min.cpp:187)
Setting up quickmin style minimization ...
  Unit style    : lj
  Current step  : 2000
Per MPI rank memory allocation (min/avg/max) = 4.840 | 4.840 | 4.840 Mbytes
Step Temp E_pair E_mol TotEng Press 
    2000            0            0 1.4162956e-15 1.4162956e-15 1.7176002e-09 
    2100 1.8786554e-10            0 2.6978156e-16 1.6102787e-10 -6.3342541e-10 
    2200 1.6231799e-10            0 3.1967034e-16 1.3913002e-10 -5.0675584e-10 
    2300 8.3009833e-11            0 2.0907987e-16 7.1151494e-11 -3.6279158e-10 
    2400 1.166296e-11            0 1.0629836e-16 9.9969288e-12 -2.2472077e-10 
    2500 4.6103741e-12            0 4.6879582e-17 3.9517961e-12 -1.300584e-10 
    2600 5.4996837e-12            0 1.9348542e-17 4.714034e-12 -8.8089793e-11 
    2700 5.8971802e-13            0 7.2259807e-18 5.0547981e-13 -4.4643221e-11 
    2800 1.6718026e-13            0 2.6798804e-18 1.4330004e-13 -2.7968315e-11 
    2900 1.0664865e-13            0 9.6264894e-19 9.1414088e-14 -1.4899838e-11 
    3000 2.1919032e-14            0 3.3547263e-19 1.8788078e-14 -8.0987834e-12 
    3100 5.8716336e-15            0 1.0297436e-19 5.0329318e-15 -3.6945451e-12 
    3200 2.2471296e-16            0 2.5096409e-20 1.926362e-16 -9.4575471e-13 
    3300 4.3400821e-16            0 4.5337072e-21 3.7201157e-16 7.3683036e-13 
    3400 1.5112502e-15            0 2.2016245e-21 1.2953595e-15 1.6848469e-12 
    3500 2.0288506e-15            0 4.0134452e-21 1.7390189e-15 2.1546946e-12 
    3600 2.2044712e-15            0 5.7032164e-21 1.8895525e-15 2.317766e-12 
    3700 2.0501186e-15            0 6.4058019e-21 1.7572509e-15 2.3021531e-12 
    3800 1.7245261e-15            0 6.2634403e-21 1.4781715e-15 2.181514e-12 
    3900 1.3566851e-15            0 5.6159093e-21 1.1628786e-15 2.0063919e-12 
    4000 1.0416197e-15            0 4.747191e-21 8.9282164e-16 1.8062274e-12 
Loop time of 5.74718 on 1 procs for 2000 steps with 7 atoms

5.9% CPU use with 1 MPI tasks x no OpenMP threads

Minimization stats:
  Stopping criterion = max iterations
  Energy initial, next-to-last, final = 
    1.41629557977609e-15 4.75151954358955e-21 4.74719102262996e-21
  Force two-norm initial, final = 6.0427580e-06 5.7529337e-08
  Force max component initial, final = 3.7163210e-06 3.4541436e-08
  Final line search alpha, max atom move = 0.0000000 0.0000000
  Iterations, force evaluations = 2000 2000

MPI task timing breakdown:
Section |  min time  |  avg time  |  max time  |%varavg| %total
---------------------------------------------------------------
Pair    | 0          | 0          | 0          |   0.0 |  0.00
Bond    | 0.002677   | 0.002677   | 0.002677   |   0.0 |  0.05
Neigh   | 0          | 0          | 0          |   0.0 |  0.00
Comm    | 0.00125    | 0.00125    | 0.00125    |   0.0 |  0.02
Output  | 0.05       | 0.05       | 0.05       |   0.0 |  0.87
Modify  | 1.7766     | 1.7766     | 1.7766     |   0.0 | 30.91
Other   |            | 3.917      |            |       | 68.15

Nlocal:        7.00000 ave           7 max           7 min
Histogram: 1 0 0 0 0 0 0 0 0 0
Nghost:        0.00000 ave           0 max           0 min
Histogram: 1 0 0 0 0 0 0 0 0 0
Neighs:        0.00000 ave           0 max           0 min
Histogram: 1 0 0 0 0 0 0 0 0 0

Total # of neighbors = 0
Ave neighs/atom = 0.0000000
Ave special neighs/atom = 6.0000000
Neighbor list builds = 0
Dangerous builds = 0
Total wall time: 0:00:18
