LAMMPS (29 Oct 2020)
Processor partition = 52
Reading data file ...
  orthogonal box = (-6.0000000 -6.0000000 -6.0000000) to (6.0000000 6.0000000 6.0000000)
  1 by 1 by 1 MPI processor grid
  reading atoms ...
  7 atoms
  scanning bonds ...
  3 = max bonds/atom
  reading bonds ...
  11 bonds
Finding 1-2 1-3 1-4 neighbors ...
  special bond factors lj:    0.0      0.0      0.0     
  special bond factors coul:  0.0      0.0      0.0     
     4 = max # of 1-2 neighbors
     9 = max # of 1-3 neighbors
    28 = max # of 1-4 neighbors
     6 = max # of special neighbors
  special bonds CPU = 0.000 seconds
  read_data CPU = 0.086 seconds
WARNING: Using 'neigh_modify every 1 delay 0 check yes' setting during minimization (../min.cpp:187)
Setting up quickmin style minimization ...
  Unit style    : lj
  Current step  : 0
Per MPI rank memory allocation (min/avg/max) = 4.840 | 4.840 | 4.840 Mbytes
Step Temp E_pair E_mol TotEng Press 
       0            0            0  0.056610588  0.056610588  0.012470843 
     100 8.9180496e-07            0 8.8977545e-06 9.6621588e-06 1.067706e-06 
     200 9.4518853e-08            0 8.0278984e-06 8.1089146e-06 3.4711154e-07 
     300 1.1255079e-08            0 7.8302984e-06 7.8399456e-06 2.5609548e-07 
     400 1.6283777e-07            0 7.4938491e-06 7.6334243e-06 3.3516086e-07 
     500 2.3624216e-07            0 6.8844965e-06 7.0869898e-06 4.5550163e-07 
     600 2.849279e-07            0 5.9794004e-06 6.2236243e-06 5.7643614e-07 
     700 2.9653499e-07            0 4.9327861e-06 5.186959e-06 6.625114e-07 
     800 1.0803606e-07            0 4.0859532e-06 4.1785555e-06 6.9038259e-07 
     900 7.5979656e-08            0 3.4004322e-06 3.4655576e-06 7.0069436e-07 
    1000 4.2559615e-08            0 2.8822312e-06 2.9187109e-06 6.9034167e-07 
    1100 1.5660544e-08            0 2.498419e-06 2.5118423e-06 6.7999875e-07 
    1200 9.7496328e-09            0 2.2284921e-06 2.236849e-06 6.677199e-07 
    1300 6.1575182e-09            0 2.0464184e-06 2.0516962e-06 6.569045e-07 
    1400 4.0347643e-09            0 1.9306772e-06 1.9341355e-06 6.4893704e-07 
    1500 5.3888652e-09            0 1.865144e-06 1.8697631e-06 6.4318295e-07 
    1600 6.5027141e-09            0 1.8367317e-06 1.8423054e-06 6.451773e-07 
    1700 8.8773038e-10            0 1.8352487e-06 1.8360096e-06 6.4520337e-07 
    1800 1.8509255e-09            0 1.8530286e-06 1.8546151e-06 6.4763399e-07 
    1900 3.3102399e-10            0 1.8840372e-06 1.8843209e-06 6.5176454e-07 
    2000 4.858768e-10            0 1.9236686e-06 1.924085e-06 6.5457065e-07 
Loop time of 12.3154 on 1 procs for 2000 steps with 7 atoms

3.7% CPU use with 1 MPI tasks x no OpenMP threads

Minimization stats:
  Stopping criterion = max iterations
  Energy initial, next-to-last, final = 
    0.0566105880722437 1.92328983663829e-06 1.92366856173223e-06
  Force two-norm initial, final = 2.4497388 3.6511809e-05
  Force max component initial, final = 1.2449487 2.1487446e-05
  Final line search alpha, max atom move = 0.0000000 0.0000000
  Iterations, force evaluations = 2000 2000

MPI task timing breakdown:
Section |  min time  |  avg time  |  max time  |%varavg| %total
---------------------------------------------------------------
Pair    | 0          | 0          | 0          |   0.0 |  0.00
Bond    | 0.002963   | 0.002963   | 0.002963   |   0.0 |  0.02
Neigh   | 3e-06      | 3e-06      | 3e-06      |   0.0 |  0.00
Comm    | 0.001556   | 0.001556   | 0.001556   |   0.0 |  0.01
Output  | 0.19323    | 0.19323    | 0.19323    |   0.0 |  1.57
Modify  | 3.8847     | 3.8847     | 3.8847     |   0.0 | 31.54
Other   |            | 8.233      |            |       | 66.85

Nlocal:        7.00000 ave           7 max           7 min
Histogram: 1 0 0 0 0 0 0 0 0 0
Nghost:        0.00000 ave           0 max           0 min
Histogram: 1 0 0 0 0 0 0 0 0 0
Neighs:        0.00000 ave           0 max           0 min
Histogram: 1 0 0 0 0 0 0 0 0 0

Total # of neighbors = 0
Ave neighs/atom = 0.0000000
Ave special neighs/atom = 6.0000000
Neighbor list builds = 1
Dangerous builds = 0
WARNING: Using 'neigh_modify every 1 delay 0 check yes' setting during minimization (../min.cpp:187)
Setting up quickmin style minimization ...
  Unit style    : lj
  Current step  : 2000
Per MPI rank memory allocation (min/avg/max) = 4.840 | 4.840 | 4.840 Mbytes
Step Temp E_pair E_mol TotEng Press 
    2000            0            0 1.9236686e-06 1.9236686e-06 6.545504e-07 
    2100 1.6146039e-08            0 1.5007001e-06 1.5145396e-06 5.8629634e-07 
    2200 1.2795659e-08            0 1.1869216e-06 1.1978893e-06 5.4325462e-07 
    2300 7.2579049e-09            0 9.7042983e-07 9.7665089e-07 5.0668181e-07 
    2400 1.2964148e-09            0 8.2369706e-07 8.2480827e-07 4.7747985e-07 
    2500 7.0543087e-10            0 7.2185806e-07 7.2246271e-07 4.5477992e-07 
    2600 1.1185177e-09            0 6.5221009e-07 6.5316882e-07 4.3784602e-07 
    2700 1.8518564e-10            0 6.0481663e-07 6.0497536e-07 4.2548365e-07 
    2800 7.6175847e-11            0 5.7315934e-07 5.7322463e-07 4.1686434e-07 
    2900 8.2276126e-11            0 5.5211681e-07 5.5218733e-07 4.1094972e-07 
    3000 3.2417471e-11            0 5.3784538e-07 5.3787317e-07 4.0684745e-07 
    3100 2.4413974e-11            0 5.2761682e-07 5.2763775e-07 4.0386199e-07 
    3200 1.2807769e-11            0 5.2020844e-07 5.2021942e-07 4.0167463e-07 
    3300 6.6719081e-12            0 5.1489886e-07 5.1490458e-07 4.0009388e-07 
    3400 3.3499496e-12            0 5.1111553e-07 5.111184e-07 3.9896072e-07 
    3500 1.6288097e-12            0 5.0841964e-07 5.0842104e-07 3.9814973e-07 
    3600 8.7287624e-13            0 5.0647502e-07 5.0647576e-07 3.9756288e-07 
    3700 4.7039906e-13            0 5.0506947e-07 5.0506987e-07 3.971377e-07 
    3800 2.5401694e-13            0 5.0404938e-07 5.040496e-07 3.9682857e-07 
    3900 1.3803231e-13            0  5.03307e-07 5.0330712e-07 3.9660328e-07 
    4000 7.7470607e-14            0 5.0276464e-07 5.0276471e-07 3.9643851e-07 
Loop time of 5.75369 on 1 procs for 2000 steps with 7 atoms

5.9% CPU use with 1 MPI tasks x no OpenMP threads

Minimization stats:
  Stopping criterion = max iterations
  Energy initial, next-to-last, final = 
    1.92366856173223e-06 5.02768898515863e-07 5.02764640762814e-07
  Force two-norm initial, final = 2.9790466e-05 4.9578003e-07
  Force max component initial, final = 1.5300212e-05 3.3779234e-07
  Final line search alpha, max atom move = 0.0000000 0.0000000
  Iterations, force evaluations = 2000 2000

MPI task timing breakdown:
Section |  min time  |  avg time  |  max time  |%varavg| %total
---------------------------------------------------------------
Pair    | 0          | 0          | 0          |   0.0 |  0.00
Bond    | 0.002491   | 0.002491   | 0.002491   |   0.0 |  0.04
Neigh   | 0          | 0          | 0          |   0.0 |  0.00
Comm    | 0.001289   | 0.001289   | 0.001289   |   0.0 |  0.02
Output  | 0.049828   | 0.049828   | 0.049828   |   0.0 |  0.87
Modify  | 1.8919     | 1.8919     | 1.8919     |   0.0 | 32.88
Other   |            | 3.808      |            |       | 66.19

Nlocal:        7.00000 ave           7 max           7 min
Histogram: 1 0 0 0 0 0 0 0 0 0
Nghost:        0.00000 ave           0 max           0 min
Histogram: 1 0 0 0 0 0 0 0 0 0
Neighs:        0.00000 ave           0 max           0 min
Histogram: 1 0 0 0 0 0 0 0 0 0

Total # of neighbors = 0
Ave neighs/atom = 0.0000000
Ave special neighs/atom = 6.0000000
Neighbor list builds = 0
Dangerous builds = 0
Total wall time: 0:00:18
