LAMMPS (29 Oct 2020)
Processor partition = 29
Reading data file ...
  orthogonal box = (-6.0000000 -6.0000000 -6.0000000) to (6.0000000 6.0000000 6.0000000)
  1 by 1 by 1 MPI processor grid
  reading atoms ...
  7 atoms
  scanning bonds ...
  3 = max bonds/atom
  reading bonds ...
  11 bonds
Finding 1-2 1-3 1-4 neighbors ...
  special bond factors lj:    0.0      0.0      0.0     
  special bond factors coul:  0.0      0.0      0.0     
     4 = max # of 1-2 neighbors
     9 = max # of 1-3 neighbors
    28 = max # of 1-4 neighbors
     6 = max # of special neighbors
  special bonds CPU = 0.000 seconds
  read_data CPU = 0.058 seconds
WARNING: Using 'neigh_modify every 1 delay 0 check yes' setting during minimization (../min.cpp:187)
Setting up quickmin style minimization ...
  Unit style    : lj
  Current step  : 0
Per MPI rank memory allocation (min/avg/max) = 4.840 | 4.840 | 4.840 Mbytes
Step Temp E_pair E_mol TotEng Press 
       0            0            0  0.061510702  0.061510702  0.012866536 
     100 1.7293224e-06            0 2.6854755e-06 4.1677518e-06 9.5118182e-07 
     200 2.7477573e-07            0    7.008e-07 9.3632206e-07  2.77356e-08 
     300 1.2499143e-08            0 3.3290595e-07 3.436195e-07 -1.1919631e-07 
     400 7.1951315e-08            0 1.6390045e-07 2.2557301e-07 -9.5025004e-08 
     500 6.2989194e-08            0 7.7621539e-08 1.3161228e-07 -6.4300563e-08 
     600 7.291827e-08            0 3.5955699e-08 9.8457073e-08 -3.8184981e-08 
     700 8.1481206e-08            0 1.6459146e-08 8.630018e-08 -3.2092113e-08 
     800 5.0322139e-08            0 8.2963063e-09 5.1429568e-08 3.7803614e-10 
     900 2.3641837e-08            0 4.1934243e-09 2.4457856e-08 -2.6502997e-08 
    1000 2.8244361e-08            0 2.1141104e-09 2.6323563e-08 2.325286e-08 
    1100 2.5094011e-08            0 1.0395181e-09 2.2548671e-08 1.7930776e-08 
    1200 1.7623091e-08            0 5.0219985e-10 1.5607706e-08 1.0580404e-08 
    1300 1.3648507e-08            0 2.3863404e-10 1.1937354e-08 1.0517509e-08 
    1400 1.1197375e-08            0 1.1160932e-10 9.7093597e-09 1.5723527e-08 
    1500 5.4497886e-09            0 5.198091e-11 4.7232282e-09 2.7409172e-08 
    1600 4.3449987e-09            0 2.3755434e-11  3.74804e-09 -1.7700105e-08 
    1700 4.1622437e-09            0 1.0801261e-11 3.5784387e-09 6.9842758e-09 
    1800 2.1586916e-09            0 4.8501634e-12 1.8551573e-09 3.3006549e-09 
    1900 1.2874818e-09            0 2.1641587e-12  1.10572e-09 -1.1219249e-09 
    2000 1.2929986e-09            0 1.1339638e-12 1.1094185e-09 1.9284037e-08 
Loop time of 12.319 on 1 procs for 2000 steps with 7 atoms

4.0% CPU use with 1 MPI tasks x no OpenMP threads

Minimization stats:
  Stopping criterion = max iterations
  Energy initial, next-to-last, final = 
    0.0615107016525646 1.10299397637698e-12 1.13396377671542e-12
  Force two-norm initial, final = 2.5783533 5.8848983e-05
  Force max component initial, final = 1.3642912 2.9071284e-05
  Final line search alpha, max atom move = 0.0000000 0.0000000
  Iterations, force evaluations = 2000 2000

MPI task timing breakdown:
Section |  min time  |  avg time  |  max time  |%varavg| %total
---------------------------------------------------------------
Pair    | 0          | 0          | 0          |   0.0 |  0.00
Bond    | 0.002875   | 0.002875   | 0.002875   |   0.0 |  0.02
Neigh   | 2e-06      | 2e-06      | 2e-06      |   0.0 |  0.00
Comm    | 0.001295   | 0.001295   | 0.001295   |   0.0 |  0.01
Output  | 0.19527    | 0.19527    | 0.19527    |   0.0 |  1.59
Modify  | 3.9008     | 3.9008     | 3.9008     |   0.0 | 31.66
Other   |            | 8.219      |            |       | 66.72

Nlocal:        7.00000 ave           7 max           7 min
Histogram: 1 0 0 0 0 0 0 0 0 0
Nghost:        0.00000 ave           0 max           0 min
Histogram: 1 0 0 0 0 0 0 0 0 0
Neighs:        0.00000 ave           0 max           0 min
Histogram: 1 0 0 0 0 0 0 0 0 0

Total # of neighbors = 0
Ave neighs/atom = 0.0000000
Ave special neighs/atom = 6.0000000
Neighbor list builds = 1
Dangerous builds = 0
WARNING: Using 'neigh_modify every 1 delay 0 check yes' setting during minimization (../min.cpp:187)
Setting up quickmin style minimization ...
  Unit style    : lj
  Current step  : 2000
Per MPI rank memory allocation (min/avg/max) = 4.840 | 4.840 | 4.840 Mbytes
Step Temp E_pair E_mol TotEng Press 
    2000            0            0 1.1339638e-12 1.1339638e-12 1.9230162e-08 
    2100 5.5029457e-09            0 4.6234832e-13 4.717273e-09 9.2483644e-09 
    2200 3.6864181e-09            0 2.0259635e-13 3.1599895e-09 -5.0381403e-09 
    2300 2.8307523e-09            0 1.7846771e-13 2.4265376e-09 -1.2826274e-08 
    2400 2.2525602e-09            0 3.1270877e-14 1.9307972e-09 2.3878894e-09 
    2500 2.1489207e-09            0 3.359752e-14 1.8419656e-09 -6.0365195e-09 
    2600 1.067878e-09            0 4.1809322e-14 9.1536584e-10 8.6216563e-09 
    2700 8.0729279e-10            0 5.5123358e-14 6.9202037e-10 9.5291434e-09 
    2800 2.9579613e-10            0 5.0520241e-15 2.5354459e-10 1.3364315e-09 
    2900 2.0646931e-10            0 6.1705644e-16 1.7697431e-10 -3.468385e-10 
    3000 1.4484499e-10            0 1.3075694e-15 1.2415415e-10 -1.8084897e-09 
    3100 1.013962e-10            0 1.6394908e-16 8.6911193e-11 -6.7274856e-10 
    3200 7.1245736e-11            0 1.6779145e-15 6.1069452e-11 -2.0718917e-09 
    3300 5.7094252e-11            0 3.8365173e-16 4.8938314e-11 7.8066213e-10 
    3400 4.1520425e-11            0 5.2953991e-17 3.5588989e-11 1.3342273e-10 
    3500 3.0437816e-11            0 8.1859897e-17 2.6089638e-11 2.4969656e-10 
    3600 2.311352e-11            0 3.433387e-17 1.9811623e-11 3.4357072e-10 
    3700 1.6856517e-11            0 2.2266773e-16 1.4448666e-11 -6.0408746e-10 
    3800 1.2280521e-11            0 9.6017481e-18 1.0526171e-11 4.9480484e-11 
    3900 9.1169873e-12            0 1.1315868e-17 7.8145719e-12 1.737103e-10 
    4000 6.9465318e-12            0 3.0255876e-17 5.9542004e-12 3.2476617e-11 
Loop time of 5.74935 on 1 procs for 2000 steps with 7 atoms

6.4% CPU use with 1 MPI tasks x no OpenMP threads

Minimization stats:
  Stopping criterion = max iterations
  Energy initial, next-to-last, final = 
    1.13396377671542e-12 5.45485907284697e-17 3.02558756090704e-17
  Force two-norm initial, final = 7.3118789e-05 5.2814151e-06
  Force max component initial, final = 3.6109551e-05 2.5945154e-06
  Final line search alpha, max atom move = 0.0000000 0.0000000
  Iterations, force evaluations = 2000 2000

MPI task timing breakdown:
Section |  min time  |  avg time  |  max time  |%varavg| %total
---------------------------------------------------------------
Pair    | 0          | 0          | 0          |   0.0 |  0.00
Bond    | 0.002447   | 0.002447   | 0.002447   |   0.0 |  0.04
Neigh   | 0          | 0          | 0          |   0.0 |  0.00
Comm    | 0.001137   | 0.001137   | 0.001137   |   0.0 |  0.02
Output  | 0.050586   | 0.050586   | 0.050586   |   0.0 |  0.88
Modify  | 1.846      | 1.846      | 1.846      |   0.0 | 32.11
Other   |            | 3.849      |            |       | 66.95

Nlocal:        7.00000 ave           7 max           7 min
Histogram: 1 0 0 0 0 0 0 0 0 0
Nghost:        0.00000 ave           0 max           0 min
Histogram: 1 0 0 0 0 0 0 0 0 0
Neighs:        0.00000 ave           0 max           0 min
Histogram: 1 0 0 0 0 0 0 0 0 0

Total # of neighbors = 0
Ave neighs/atom = 0.0000000
Ave special neighs/atom = 6.0000000
Neighbor list builds = 0
Dangerous builds = 0
Total wall time: 0:00:18
