LAMMPS (29 Oct 2020)
Processor partition = 5
Reading data file ...
  orthogonal box = (-6.0000000 -6.0000000 -6.0000000) to (6.0000000 6.0000000 6.0000000)
  1 by 1 by 1 MPI processor grid
  reading atoms ...
  7 atoms
  scanning bonds ...
  3 = max bonds/atom
  reading bonds ...
  11 bonds
Finding 1-2 1-3 1-4 neighbors ...
  special bond factors lj:    0.0      0.0      0.0     
  special bond factors coul:  0.0      0.0      0.0     
     4 = max # of 1-2 neighbors
     8 = max # of 1-3 neighbors
    24 = max # of 1-4 neighbors
     6 = max # of special neighbors
  special bonds CPU = 0.000 seconds
  read_data CPU = 0.016 seconds
WARNING: Using 'neigh_modify every 1 delay 0 check yes' setting during minimization (../min.cpp:187)
Setting up quickmin style minimization ...
  Unit style    : lj
  Current step  : 0
Per MPI rank memory allocation (min/avg/max) = 4.840 | 4.840 | 4.840 Mbytes
Step Temp E_pair E_mol TotEng Press 
       0            0            0  0.022838239  0.022838239 0.0064208658 
     100 4.1101186e-06            0 3.319411e-06 6.8423698e-06 -2.2758756e-06 
     200 1.0682973e-08            0 2.1759289e-08 3.0916123e-08 -1.2214139e-07 
     300 1.2772618e-10            0 1.421353e-08 1.4323009e-08 2.1436572e-09 
     400 1.4229212e-11            0 1.3950482e-08 1.3962679e-08 7.6371901e-09 
     500 5.8962773e-11            0 1.3715807e-08 1.3766346e-08 7.8911107e-09 
     600 9.522639e-11            0 1.3471149e-08 1.3552771e-08 7.7260586e-09 
     700 1.1836991e-10            0 1.3229043e-08 1.3330503e-08 7.7787091e-09 
     800 1.3105857e-10            0 1.2988694e-08 1.310103e-08 4.4984011e-09 
     900 1.1514462e-11            0 1.2755524e-08 1.2765394e-08  7.90604e-09 
    1000 4.796489e-10            0 1.2519007e-08 1.2930135e-08 -1.0248223e-09 
    1100 1.0156586e-10            0 1.2278185e-08 1.2365242e-08 7.7044263e-09 
    1200 4.384137e-10            0 1.2054411e-08 1.2430194e-08 -3.9249897e-09 
    1300 1.3521073e-10            0 1.1811794e-08 1.1927689e-08 9.9430822e-09 
    1400 3.0429762e-11            0 1.159675e-08 1.1622833e-08 7.8593846e-09 
    1500 5.6730796e-11            0 1.1376151e-08 1.1424777e-08 7.6114388e-09 
    1600 1.8184037e-11            0 1.1161862e-08 1.1177449e-08 7.8287712e-09 
    1700 1.5398433e-11            0 1.093842e-08 1.0951618e-08 7.810033e-09 
    1800 1.5057728e-11            0 1.0716652e-08 1.0729558e-08 7.7896688e-09 
    1900 3.3071401e-11            0 1.050292e-08 1.0531266e-08 7.7689744e-09 
    2000 5.3865132e-11            0 1.028955e-08 1.033572e-08 7.7465993e-09 
Loop time of 0.510931 on 1 procs for 2000 steps with 7 atoms

22.1% CPU use with 1 MPI tasks x no OpenMP threads

Minimization stats:
  Stopping criterion = max iterations
  Energy initial, next-to-last, final = 
    0.0228382386214323 1.02920232599337e-08 1.02895495008878e-08
  Force two-norm initial, final = 1.3413222 8.8271721e-06
  Force max component initial, final = 0.77085029 4.5440628e-06
  Final line search alpha, max atom move = 0.0000000 0.0000000
  Iterations, force evaluations = 2000 2000

MPI task timing breakdown:
Section |  min time  |  avg time  |  max time  |%varavg| %total
---------------------------------------------------------------
Pair    | 0          | 0          | 0          |   0.0 |  0.00
Bond    | 0.00115    | 0.00115    | 0.00115    |   0.0 |  0.23
Neigh   | 3e-06      | 3e-06      | 3e-06      |   0.0 |  0.00
Comm    | 0.000491   | 0.000491   | 0.000491   |   0.0 |  0.10
Output  | 0.23085    | 0.23085    | 0.23085    |   0.0 | 45.18
Modify  | 0.096011   | 0.096011   | 0.096011   |   0.0 | 18.79
Other   |            | 0.1824     |            |       | 35.70

Nlocal:        7.00000 ave           7 max           7 min
Histogram: 1 0 0 0 0 0 0 0 0 0
Nghost:        0.00000 ave           0 max           0 min
Histogram: 1 0 0 0 0 0 0 0 0 0
Neighs:        0.00000 ave           0 max           0 min
Histogram: 1 0 0 0 0 0 0 0 0 0

Total # of neighbors = 0
Ave neighs/atom = 0.0000000
Ave special neighs/atom = 6.0000000
Neighbor list builds = 1
Dangerous builds = 0
WARNING: Using 'neigh_modify every 1 delay 0 check yes' setting during minimization (../min.cpp:187)
Setting up quickmin style minimization ...
  Unit style    : lj
  Current step  : 2000
Per MPI rank memory allocation (min/avg/max) = 4.840 | 4.840 | 4.840 Mbytes
Step Temp E_pair E_mol TotEng Press 
    2000            0            0 1.028955e-08 1.028955e-08 7.7443549e-09 
    2100 3.1922759e-11            0 1.0100086e-08 1.0127448e-08 8.6583207e-09 
    2200 5.5062335e-11            0 9.9076508e-09 9.9548471e-09 9.0309084e-09 
    2300 5.8868389e-11            0 9.7220815e-09 9.7725402e-09 8.9293925e-09 
    2400 3.8778549e-11            0 9.5338364e-09 9.5670751e-09 8.8851637e-09 
    2500 6.8631007e-11            0 9.3421566e-09 9.4009831e-09 7.4691177e-09 
    2600 1.0851764e-11            0 9.1656756e-09 9.1749771e-09 8.7922937e-09 
    2700 1.0403881e-11            0 8.9776866e-09 8.9866042e-09 8.7425498e-09 
    2800 1.5533008e-11            0 8.8019792e-09 8.8152932e-09 8.695911e-09 
    2900 2.0691678e-10            0 8.6127952e-09 8.7901524e-09 1.3295909e-08 
    3000 1.5583457e-10            0 8.4358236e-09 8.5693961e-09 1.3777503e-08 
    3100 1.3164753e-11            0 8.2666934e-09 8.2779774e-09 8.5421366e-09 
    3200 1.718602e-11            0 8.1001848e-09 8.1149156e-09 8.4921096e-09 
    3300 3.9885806e-11            0 7.9313172e-09 7.965505e-09 8.4406712e-09 
    3400 2.3521002e-11            0 7.7621877e-09 7.7823485e-09 8.3853856e-09 
    3500 4.2218487e-11            0 7.5955006e-09 7.6316878e-09 8.3243954e-09 
    3600 8.6709744e-11            0 7.4300073e-09 7.5043299e-09 4.8337257e-09 
    3700 1.9722745e-10            0 7.2719828e-09 7.4410349e-09 -2.5489408e-10 
    3800 5.7447573e-11            0 7.1093419e-09 7.1585827e-09 8.1562951e-09 
    3900 8.8151195e-12            0 6.9502325e-09 6.9577883e-09 7.9449726e-09 
    4000 3.4232128e-11            0 6.8064812e-09 6.8358231e-09 8.0440023e-09 
Loop time of 0.098428 on 1 procs for 2000 steps with 7 atoms

61.0% CPU use with 1 MPI tasks x no OpenMP threads

Minimization stats:
  Stopping criterion = max iterations
  Energy initial, next-to-last, final = 
    1.02895495008878e-08 6.80828342562927e-09 6.80648124698113e-09
  Force two-norm initial, final = 8.4002783e-06 6.9552338e-06
  Force max component initial, final = 4.1082708e-06 3.9116991e-06
  Final line search alpha, max atom move = 0.0000000 0.0000000
  Iterations, force evaluations = 2000 2000

MPI task timing breakdown:
Section |  min time  |  avg time  |  max time  |%varavg| %total
---------------------------------------------------------------
Pair    | 0          | 0          | 0          |   0.0 |  0.00
Bond    | 0.000782   | 0.000782   | 0.000782   |   0.0 |  0.79
Neigh   | 0          | 0          | 0          |   0.0 |  0.00
Comm    | 0.000244   | 0.000244   | 0.000244   |   0.0 |  0.25
Output  | 0.026591   | 0.026591   | 0.026591   |   0.0 | 27.02
Modify  | 0.025543   | 0.025543   | 0.025543   |   0.0 | 25.95
Other   |            | 0.04527    |            |       | 45.99

Nlocal:        7.00000 ave           7 max           7 min
Histogram: 1 0 0 0 0 0 0 0 0 0
Nghost:        0.00000 ave           0 max           0 min
Histogram: 1 0 0 0 0 0 0 0 0 0
Neighs:        0.00000 ave           0 max           0 min
Histogram: 1 0 0 0 0 0 0 0 0 0

Total # of neighbors = 0
Ave neighs/atom = 0.0000000
Ave special neighs/atom = 6.0000000
Neighbor list builds = 0
Dangerous builds = 0
Total wall time: 0:00:00
