LAMMPS (29 Oct 2020)
Processor partition = 8
Reading data file ...
  orthogonal box = (-6.0000000 -6.0000000 -6.0000000) to (6.0000000 6.0000000 6.0000000)
  1 by 1 by 1 MPI processor grid
  reading atoms ...
  7 atoms
  scanning bonds ...
  3 = max bonds/atom
  reading bonds ...
  11 bonds
Finding 1-2 1-3 1-4 neighbors ...
  special bond factors lj:    0.0      0.0      0.0     
  special bond factors coul:  0.0      0.0      0.0     
     4 = max # of 1-2 neighbors
     9 = max # of 1-3 neighbors
    28 = max # of 1-4 neighbors
     6 = max # of special neighbors
  special bonds CPU = 0.000 seconds
  read_data CPU = 0.035 seconds
WARNING: Using 'neigh_modify every 1 delay 0 check yes' setting during minimization (../min.cpp:187)
Setting up quickmin style minimization ...
  Unit style    : lj
  Current step  : 0
Per MPI rank memory allocation (min/avg/max) = 4.840 | 4.840 | 4.840 Mbytes
Step Temp E_pair E_mol TotEng Press 
       0            0            0 0.0082887058 0.0082887058 0.0054326328 
     100 1.5549416e-07            0 1.0867435e-07 2.4195506e-07 3.7445435e-07 
     200 3.8297446e-09            0 1.7858536e-09 5.0684919e-09 5.0074561e-08 
     300 2.5172366e-10            0 6.9189977e-11 2.8495311e-10 6.2338356e-09 
     400 1.9702895e-09            0 1.9710939e-11 1.7085305e-09 8.6917438e-10 
     500 3.2261096e-09            0 8.123703e-12 2.7733605e-09 -5.6296003e-10 
     600 4.8231811e-09            0 3.3126064e-12 4.1374678e-09 -1.3383858e-09 
     700 4.9219968e-09            0 1.3201799e-12 4.2201746e-09 3.1522593e-09 
     800 2.8778165e-10            0 6.5920909e-13 2.4732919e-10 1.299415e-08 
     900 2.6873322e-10            0 3.2478743e-13 2.3066755e-10 1.2187917e-08 
    1000 2.881989e-11            0 1.6057515e-13 2.4863338e-11 1.0435758e-08 
    1100 1.2090822e-09            0 4.3165175e-14 1.0363993e-09 -2.4028029e-09 
    1200 9.509981e-10            0 1.6651863e-14 8.1515788e-10 -1.6699901e-09 
    1300 8.4797317e-10            0 6.6476002e-15 7.2684079e-10 -2.0453585e-09 
    1400 8.1921767e-10            0 4.9088038e-15 7.0219148e-10 -3.2937404e-09 
    1500 6.1207428e-10            0 8.0125972e-16 5.246359e-10 -5.5293088e-10 
    1600 3.3244132e-10            0 3.0437113e-16   2.8495e-10 4.3142234e-10 
    1700 2.7801333e-10            0 6.4637211e-17 2.382972e-10 -6.2914195e-11 
    1800 1.8899148e-10            0 1.7016083e-16 1.6199287e-10 5.1472848e-10 
    1900 7.7494904e-11            0 2.2204047e-16 6.6424425e-11 3.8135436e-10 
    2000 1.3602986e-10            0 2.0939533e-15 1.1659912e-10 1.7400753e-09 
Loop time of 12.3183 on 1 procs for 2000 steps with 7 atoms

2.8% CPU use with 1 MPI tasks x no OpenMP threads

Minimization stats:
  Stopping criterion = max iterations
  Energy initial, next-to-last, final = 
    0.00828870577071423 2.15113119242451e-15 2.09395332566664e-15
  Force two-norm initial, final = 0.90914713 1.2885037e-05
  Force max component initial, final = 0.43116431 5.9917771e-06
  Final line search alpha, max atom move = 0.0000000 0.0000000
  Iterations, force evaluations = 2000 2000

MPI task timing breakdown:
Section |  min time  |  avg time  |  max time  |%varavg| %total
---------------------------------------------------------------
Pair    | 0          | 0          | 0          |   0.0 |  0.00
Bond    | 0.003169   | 0.003169   | 0.003169   |   0.0 |  0.03
Neigh   | 0          | 0          | 0          |   0.0 |  0.00
Comm    | 0.001433   | 0.001433   | 0.001433   |   0.0 |  0.01
Output  | 0.2004     | 0.2004     | 0.2004     |   0.0 |  1.63
Modify  | 3.5991     | 3.5991     | 3.5991     |   0.0 | 29.22
Other   |            | 8.514      |            |       | 69.12

Nlocal:        7.00000 ave           7 max           7 min
Histogram: 1 0 0 0 0 0 0 0 0 0
Nghost:        0.00000 ave           0 max           0 min
Histogram: 1 0 0 0 0 0 0 0 0 0
Neighs:        0.00000 ave           0 max           0 min
Histogram: 1 0 0 0 0 0 0 0 0 0

Total # of neighbors = 0
Ave neighs/atom = 0.0000000
Ave special neighs/atom = 6.0000000
Neighbor list builds = 0
Dangerous builds = 0
WARNING: Using 'neigh_modify every 1 delay 0 check yes' setting during minimization (../min.cpp:187)
Setting up quickmin style minimization ...
  Unit style    : lj
  Current step  : 2000
Per MPI rank memory allocation (min/avg/max) = 4.840 | 4.840 | 4.840 Mbytes
Step Temp E_pair E_mol TotEng Press 
    2000            0            0 2.0939533e-15 2.0939533e-15 1.7344073e-09 
    2100 1.1488807e-09            0 1.1720712e-14 9.8476657e-10 -5.7395735e-09 
    2200 4.9934194e-10            0 3.3387502e-16 4.2800771e-10 -8.7370058e-10 
    2300 2.5013918e-10            0 1.2695814e-16 2.1440514e-10 -2.7221529e-11 
    2400 1.7167792e-10            0 3.1689549e-16 1.4715282e-10 6.9931191e-10 
    2500 1.5331001e-10            0 1.327996e-15 1.314099e-10 1.3122697e-09 
    2600 8.5836998e-11            0 4.2848876e-15 7.3578855e-11 2.7684081e-09 
    2700 7.0964474e-11            0 1.1245474e-16 6.0826805e-11 4.2691432e-10 
    2800 2.6404444e-11            0 3.5318773e-17 2.2632416e-11 2.3227874e-11 
    2900 1.9028622e-11            0 8.3557013e-17 1.6310331e-11 5.138573e-10 
    3000 1.5240673e-11            0 6.0259596e-17 1.3063494e-11 3.0019008e-10 
    3100 1.3167573e-11            0 2.5198379e-16 1.1286743e-11 6.3707121e-10 
    3200 9.3691831e-12            0 1.4410665e-16 8.0308725e-12 4.7817327e-10 
    3300 6.1273542e-12            0 7.9275751e-17 5.2520971e-12 3.4729361e-10 
    3400 4.0006245e-12            0 2.1031623e-18 3.4291088e-12 7.3517733e-11 
    3500 2.4261492e-12            0 1.3125179e-18 2.0795577e-12 4.6928237e-11 
    3600 1.5138822e-12            0 3.7504692e-17 1.2976508e-12 2.0884411e-10 
    3700 8.8664473e-13            0 3.7183973e-17 7.6001838e-13 2.583002e-10 
    3800 5.7437436e-13            0 3.9660958e-19 4.9232128e-13 2.5975355e-12 
    3900 3.7736659e-13            0 9.4056928e-18 3.2346648e-13 1.6016473e-10 
    4000 2.628907e-13            0 2.2295935e-18 2.2533712e-13 -3.3953415e-11 
Loop time of 5.74462 on 1 procs for 2000 steps with 7 atoms

4.4% CPU use with 1 MPI tasks x no OpenMP threads

Minimization stats:
  Stopping criterion = max iterations
  Energy initial, next-to-last, final = 
    2.09395332566664e-15 4.68697231613589e-18 2.22959349436641e-18
  Force two-norm initial, final = 1.6831195e-05 1.7838249e-06
  Force max component initial, final = 7.8393713e-06 8.4018422e-07
  Final line search alpha, max atom move = 0.0000000 0.0000000
  Iterations, force evaluations = 2000 2000

MPI task timing breakdown:
Section |  min time  |  avg time  |  max time  |%varavg| %total
---------------------------------------------------------------
Pair    | 0          | 0          | 0          |   0.0 |  0.00
Bond    | 0.002644   | 0.002644   | 0.002644   |   0.0 |  0.05
Neigh   | 0          | 0          | 0          |   0.0 |  0.00
Comm    | 0.001168   | 0.001168   | 0.001168   |   0.0 |  0.02
Output  | 0.049235   | 0.049235   | 0.049235   |   0.0 |  0.86
Modify  | 1.7322     | 1.7322     | 1.7322     |   0.0 | 30.15
Other   |            | 3.959      |            |       | 68.92

Nlocal:        7.00000 ave           7 max           7 min
Histogram: 1 0 0 0 0 0 0 0 0 0
Nghost:        0.00000 ave           0 max           0 min
Histogram: 1 0 0 0 0 0 0 0 0 0
Neighs:        0.00000 ave           0 max           0 min
Histogram: 1 0 0 0 0 0 0 0 0 0

Total # of neighbors = 0
Ave neighs/atom = 0.0000000
Ave special neighs/atom = 6.0000000
Neighbor list builds = 0
Dangerous builds = 0
Total wall time: 0:00:18
