LAMMPS (29 Oct 2020)
Processor partition = 28
Reading data file ...
  orthogonal box = (-6.0000000 -6.0000000 -6.0000000) to (6.0000000 6.0000000 6.0000000)
  1 by 1 by 1 MPI processor grid
  reading atoms ...
  7 atoms
  scanning bonds ...
  3 = max bonds/atom
  reading bonds ...
  11 bonds
Finding 1-2 1-3 1-4 neighbors ...
  special bond factors lj:    0.0      0.0      0.0     
  special bond factors coul:  0.0      0.0      0.0     
     4 = max # of 1-2 neighbors
     9 = max # of 1-3 neighbors
    28 = max # of 1-4 neighbors
     6 = max # of special neighbors
  special bonds CPU = 0.000 seconds
  read_data CPU = 0.070 seconds
WARNING: Using 'neigh_modify every 1 delay 0 check yes' setting during minimization (../min.cpp:187)
Setting up quickmin style minimization ...
  Unit style    : lj
  Current step  : 0
Per MPI rank memory allocation (min/avg/max) = 4.840 | 4.840 | 4.840 Mbytes
Step Temp E_pair E_mol TotEng Press 
       0            0            0  0.059450922  0.059450922  0.012700086 
     100 1.6572938e-06            0 2.436455e-06 3.8569926e-06 9.4812057e-07 
     200 2.4089306e-07            0 5.8740303e-07 7.938828e-07 3.6264601e-08 
     300 1.0574832e-08            0 2.736427e-07 2.8270684e-07 -1.0653989e-07 
     400 6.2145553e-08            0 1.335167e-07 1.8678432e-07 -8.5362611e-08 
     500 5.6272194e-08            0 6.2836854e-08 1.1107016e-07 -5.7539249e-08 
     600 6.6823399e-08            0 2.8976689e-08 8.6253888e-08 -3.3636138e-08 
     700 7.434316e-08            0 1.3220387e-08 7.6943096e-08 -2.9921484e-08 
     800 4.4945652e-08            0 6.6487175e-09 4.5173562e-08 -6.9129695e-10 
     900 2.1522636e-08            0 3.354501e-09 2.1802475e-08 -2.5121748e-08 
    1000  2.67098e-08            0 1.688573e-09 2.4582687e-08 2.3487749e-08 
    1100 2.3386502e-08            0 8.2909481e-10 2.0874668e-08 1.7681022e-08 
    1200 1.6297073e-08            0 4.000122e-10 1.4368932e-08 1.0359245e-08 
    1300 1.2625321e-08            0 1.8983627e-10 1.101154e-08 1.0207699e-08 
    1400 1.042943e-08            0 8.8679576e-11 9.0281911e-09 1.5202205e-08 
    1500 5.1978473e-09            0 4.1297164e-11 4.4965949e-09  2.66872e-08 
    1600 4.0481018e-09            0 1.8835284e-11 3.4886368e-09 -1.678673e-08 
    1700 3.8562506e-09            0 8.5420729e-12 3.3138997e-09 6.6982551e-09 
    1800 2.0276289e-09            0 3.8277365e-12 1.7417954e-09 3.2868781e-09 
    1900 1.1805055e-09            0 1.7042416e-12 1.0135661e-09 -1.0836714e-09 
    2000 1.2265887e-09            0 9.1473845e-13 1.0522765e-09 1.853549e-08 
Loop time of 12.3184 on 1 procs for 2000 steps with 7 atoms

2.8% CPU use with 1 MPI tasks x no OpenMP threads

Minimization stats:
  Stopping criterion = max iterations
  Energy initial, next-to-last, final = 
    0.0594509221520729 8.85034408208923e-13 9.14738454694486e-13
  Force two-norm initial, final = 2.5319352 5.6243995e-05
  Force max component initial, final = 1.3364736 2.7846932e-05
  Final line search alpha, max atom move = 0.0000000 0.0000000
  Iterations, force evaluations = 2000 2000

MPI task timing breakdown:
Section |  min time  |  avg time  |  max time  |%varavg| %total
---------------------------------------------------------------
Pair    | 0          | 0          | 0          |   0.0 |  0.00
Bond    | 0.003181   | 0.003181   | 0.003181   |   0.0 |  0.03
Neigh   | 3e-06      | 3e-06      | 3e-06      |   0.0 |  0.00
Comm    | 0.001412   | 0.001412   | 0.001412   |   0.0 |  0.01
Output  | 0.2054     | 0.2054     | 0.2054     |   0.0 |  1.67
Modify  | 3.6803     | 3.6803     | 3.6803     |   0.0 | 29.88
Other   |            | 8.428      |            |       | 68.42

Nlocal:        7.00000 ave           7 max           7 min
Histogram: 1 0 0 0 0 0 0 0 0 0
Nghost:        0.00000 ave           0 max           0 min
Histogram: 1 0 0 0 0 0 0 0 0 0
Neighs:        0.00000 ave           0 max           0 min
Histogram: 1 0 0 0 0 0 0 0 0 0

Total # of neighbors = 0
Ave neighs/atom = 0.0000000
Ave special neighs/atom = 6.0000000
Neighbor list builds = 1
Dangerous builds = 0
WARNING: Using 'neigh_modify every 1 delay 0 check yes' setting during minimization (../min.cpp:187)
Setting up quickmin style minimization ...
  Unit style    : lj
  Current step  : 2000
Per MPI rank memory allocation (min/avg/max) = 4.840 | 4.840 | 4.840 Mbytes
Step Temp E_pair E_mol TotEng Press 
    2000            0            0 9.1473845e-13 9.1473845e-13 1.8484382e-08 
    2100 5.2900177e-09            0 3.7077806e-13 4.5346717e-09 9.7993199e-09 
    2200 3.4482602e-09            0 1.5841842e-13 2.9558101e-09 -4.6640515e-09 
    2300 2.6192231e-09            0 1.5392637e-13 2.2452023e-09 -1.2386056e-08 
    2400 2.0840042e-09            0 2.4273397e-14 1.7863136e-09 2.2917515e-09 
    2500 1.9732229e-09            0 7.1735523e-15 1.691341e-09 1.6257126e-09 
    2600 9.8299239e-10            0 1.5083669e-14 8.4257999e-10 -4.7010265e-09 
    2700 7.6308781e-10            0 6.5934655e-15 6.5408186e-10 3.1259416e-09 
    2800 2.8049153e-10            0 4.8666467e-15 2.4042618e-10 -1.3706085e-09 
    2900 1.981595e-10            0 3.0312452e-15 1.6985403e-10 3.2684122e-09 
    3000 1.3732229e-10            0 3.1649388e-15 1.1770799e-10 -2.3612349e-09 
    3100 9.4113679e-11            0 4.3847824e-16 8.0669306e-11 6.8737117e-10 
    3200 6.6315427e-11            0 3.7613709e-16 5.6842171e-11 1.0486317e-09 
    3300 5.1670757e-11            0 7.7842517e-17 4.4289298e-11 -3.6467117e-10 
    3400 3.7012663e-11            0 3.8693619e-16 3.1725527e-11 -7.9408485e-10 
    3500 2.5709617e-11            0 3.6317718e-16 2.2037177e-11 -5.8833096e-10 
    3600 1.978178e-11            0 5.0988127e-17 1.6955863e-11 3.9394438e-10 
    3700 1.3913717e-11            0 2.8014344e-17 1.1926071e-11 4.8156118e-11 
    3800 9.9130984e-12            0 8.7974615e-17 8.4970295e-12 -4.0185796e-10 
    3900 7.4486892e-12            0 4.2356854e-17 6.3846331e-12 -2.5656929e-10 
    4000 5.5607228e-12            0 5.7855794e-17 4.7663917e-12 -3.3417952e-10 
Loop time of 5.74946 on 1 procs for 2000 steps with 7 atoms

4.4% CPU use with 1 MPI tasks x no OpenMP threads

Minimization stats:
  Stopping criterion = max iterations
  Energy initial, next-to-last, final = 
    9.14738454694486e-13 7.29955367761689e-17 5.78557935546757e-17
  Force two-norm initial, final = 7.0021633e-05 5.3868262e-06
  Force max component initial, final = 3.4662934e-05 2.6491333e-06
  Final line search alpha, max atom move = 0.0000000 0.0000000
  Iterations, force evaluations = 2000 2000

MPI task timing breakdown:
Section |  min time  |  avg time  |  max time  |%varavg| %total
---------------------------------------------------------------
Pair    | 0          | 0          | 0          |   0.0 |  0.00
Bond    | 0.002709   | 0.002709   | 0.002709   |   0.0 |  0.05
Neigh   | 0          | 0          | 0          |   0.0 |  0.00
Comm    | 0.001212   | 0.001212   | 0.001212   |   0.0 |  0.02
Output  | 0.049253   | 0.049253   | 0.049253   |   0.0 |  0.86
Modify  | 1.7382     | 1.7382     | 1.7382     |   0.0 | 30.23
Other   |            | 3.958      |            |       | 68.84

Nlocal:        7.00000 ave           7 max           7 min
Histogram: 1 0 0 0 0 0 0 0 0 0
Nghost:        0.00000 ave           0 max           0 min
Histogram: 1 0 0 0 0 0 0 0 0 0
Neighs:        0.00000 ave           0 max           0 min
Histogram: 1 0 0 0 0 0 0 0 0 0

Total # of neighbors = 0
Ave neighs/atom = 0.0000000
Ave special neighs/atom = 6.0000000
Neighbor list builds = 0
Dangerous builds = 0
Total wall time: 0:00:18
