LAMMPS (29 Oct 2020)
Processor partition = 35
Reading data file ...
  orthogonal box = (-6.0000000 -6.0000000 -6.0000000) to (6.0000000 6.0000000 6.0000000)
  1 by 1 by 1 MPI processor grid
  reading atoms ...
  7 atoms
  scanning bonds ...
  3 = max bonds/atom
  reading bonds ...
  11 bonds
Finding 1-2 1-3 1-4 neighbors ...
  special bond factors lj:    0.0      0.0      0.0     
  special bond factors coul:  0.0      0.0      0.0     
     4 = max # of 1-2 neighbors
     9 = max # of 1-3 neighbors
    28 = max # of 1-4 neighbors
     6 = max # of special neighbors
  special bonds CPU = 0.000 seconds
  read_data CPU = 0.074 seconds
WARNING: Using 'neigh_modify every 1 delay 0 check yes' setting during minimization (../min.cpp:187)
Setting up quickmin style minimization ...
  Unit style    : lj
  Current step  : 0
Per MPI rank memory allocation (min/avg/max) = 4.840 | 4.840 | 4.840 Mbytes
Step Temp E_pair E_mol TotEng Press 
       0            0            0  0.070345485  0.070345485  0.013532819 
     100 2.0228737e-06            0 4.5114742e-06 6.2453659e-06 9.2142693e-07 
     200 5.2148218e-07            0 1.7944521e-06 2.2414368e-06 -4.5464463e-08 
     300 3.0347385e-08            0 9.7362158e-07 9.9963362e-07 -2.1545371e-07 
     400 1.6862086e-07            0 5.1683544e-07 6.613676e-07 -1.7090772e-07 
     500 1.2592227e-07            0 2.5853401e-07 3.6646738e-07 -1.2006169e-07 
     600 1.234679e-07            0 1.2467498e-07 2.3050461e-07 -7.7360414e-08 
     700 1.3615041e-07            0 5.8840048e-08 1.755404e-07 -5.3197517e-08 
     800 8.4094263e-08            0 3.0292061e-08 1.0237286e-07 -4.9205697e-09 
     900 3.799543e-08            0 1.5578745e-08 4.8146257e-08 -4.1388553e-08 
    1000 3.521285e-08            0 7.9689799e-09 3.8151423e-08 1.2875638e-08 
    1100 3.6410316e-08            0 3.9698668e-09 3.5178709e-08 1.6442237e-08 
    1200 2.6955096e-08            0 1.9403252e-09 2.5044693e-08 1.0239907e-08 
    1300 2.0823449e-08            0 9.3181162e-10 1.8780482e-08 1.1217983e-08 
    1400 1.6369904e-08            0 4.4006134e-10 1.4471408e-08 1.7864516e-08 
    1500 6.8537792e-09            0 2.0602814e-10 6.0806961e-09 3.0260351e-08 
    1600 6.3719542e-09            0 9.5249523e-11 5.5569245e-09 -2.3652966e-08 
    1700 6.2891248e-09            0 4.3927647e-11 5.434606e-09 8.4434424e-09 
    1800 3.001327e-09            0 1.9969813e-11 2.5925358e-09 2.9742576e-09 
    1900 2.0728467e-09            0 9.0253294e-12 1.785751e-09 -1.4084017e-09 
    2000 1.6794675e-09            0 4.3133933e-12 1.4438569e-09 2.3433057e-08 
Loop time of 12.315 on 1 procs for 2000 steps with 7 atoms

3.8% CPU use with 1 MPI tasks x no OpenMP threads

Minimization stats:
  Stopping criterion = max iterations
  Energy initial, next-to-last, final = 
    0.0703454849357949 4.28797931040732e-12 4.31339330711625e-12
  Force two-norm initial, final = 2.7689947 7.5567854e-05
  Force max component initial, final = 1.4758440 3.6351608e-05
  Final line search alpha, max atom move = 0.0000000 0.0000000
  Iterations, force evaluations = 2000 2000

MPI task timing breakdown:
Section |  min time  |  avg time  |  max time  |%varavg| %total
---------------------------------------------------------------
Pair    | 0          | 0          | 0          |   0.0 |  0.00
Bond    | 0.002965   | 0.002965   | 0.002965   |   0.0 |  0.02
Neigh   | 2e-06      | 2e-06      | 2e-06      |   0.0 |  0.00
Comm    | 0.001551   | 0.001551   | 0.001551   |   0.0 |  0.01
Output  | 0.19565    | 0.19565    | 0.19565    |   0.0 |  1.59
Modify  | 3.8372     | 3.8372     | 3.8372     |   0.0 | 31.16
Other   |            | 8.278      |            |       | 67.22

Nlocal:        7.00000 ave           7 max           7 min
Histogram: 1 0 0 0 0 0 0 0 0 0
Nghost:        0.00000 ave           0 max           0 min
Histogram: 1 0 0 0 0 0 0 0 0 0
Neighs:        0.00000 ave           0 max           0 min
Histogram: 1 0 0 0 0 0 0 0 0 0

Total # of neighbors = 0
Ave neighs/atom = 0.0000000
Ave special neighs/atom = 6.0000000
Neighbor list builds = 1
Dangerous builds = 0
WARNING: Using 'neigh_modify every 1 delay 0 check yes' setting during minimization (../min.cpp:187)
Setting up quickmin style minimization ...
  Unit style    : lj
  Current step  : 2000
Per MPI rank memory allocation (min/avg/max) = 4.840 | 4.840 | 4.840 Mbytes
Step Temp E_pair E_mol TotEng Press 
    2000            0            0 4.3133933e-12 4.3133933e-12 2.3363079e-08 
    2100 6.9388431e-09            0 1.9327798e-12 5.9495126e-09 5.8290382e-09 
    2200 5.3782602e-09            0 8.8551644e-13 4.6108228e-09 -6.4458488e-09 
    2300 4.2380104e-09            0 5.2443567e-13 3.6331048e-09 -1.5802794e-08 
    2400 3.4237707e-09            0 1.5477586e-13 2.9348154e-09 2.832217e-09 
    2500 2.9263634e-09            0 1.8758421e-13 2.508499e-09 1.8115505e-08 
    2600 1.4875176e-09            0 2.0324927e-13 1.2752183e-09 -1.7583717e-08 
    2700 1.0850055e-09            0 5.508601e-14 9.3005983e-10 1.1042337e-08 
    2800 4.5971419e-10            0 4.9902085e-15 3.9404572e-10 2.6447769e-09 
    2900 3.6068814e-10            0 3.1829439e-15 3.0916444e-10 -1.9011297e-09 
    3000 3.0345287e-10            0 8.0678975e-16 2.6010326e-10 -7.7074712e-10 
    3100 2.2498684e-10            0 8.3418526e-15 1.9285421e-10 -3.8689104e-09 
    3200 1.6267319e-10            0 9.717189e-16 1.3943513e-10 -1.4464741e-09 
    3300 1.1293629e-10            0 1.4045954e-15 9.6803943e-11 -1.5277178e-09 
    3400 8.1265018e-11            0 4.8096869e-16 6.9656211e-11 -8.3554779e-10 
    3500 6.8667738e-11            0 2.442243e-17 5.8858086e-11 3.9859032e-11 
    3600 5.338389e-11            0 3.1672274e-16 4.5757937e-11 -4.6892077e-10 
    3700 3.9474958e-11            0 7.8043795e-17 3.3835756e-11 3.3916554e-10 
    3800 3.0952391e-11            0 7.2741748e-16 2.6531348e-11 1.3533265e-09 
    3900 2.3965524e-11            0 8.8907695e-17 2.0541966e-11 4.3123486e-10 
    4000 1.8732182e-11            0 7.5402966e-17 1.6056232e-11 -2.5823644e-10 
Loop time of 5.75835 on 1 procs for 2000 steps with 7 atoms

6.0% CPU use with 1 MPI tasks x no OpenMP threads

Minimization stats:
  Stopping criterion = max iterations
  Energy initial, next-to-last, final = 
    4.31339330711625e-12 1.2287349076776e-16 7.54029660762241e-17
  Force two-norm initial, final = 9.2792245e-05 4.6229310e-06
  Force max component initial, final = 4.4601693e-05 2.1935005e-06
  Final line search alpha, max atom move = 0.0000000 0.0000000
  Iterations, force evaluations = 2000 2000

MPI task timing breakdown:
Section |  min time  |  avg time  |  max time  |%varavg| %total
---------------------------------------------------------------
Pair    | 0          | 0          | 0          |   0.0 |  0.00
Bond    | 0.002411   | 0.002411   | 0.002411   |   0.0 |  0.04
Neigh   | 0          | 0          | 0          |   0.0 |  0.00
Comm    | 0.001218   | 0.001218   | 0.001218   |   0.0 |  0.02
Output  | 0.049553   | 0.049553   | 0.049553   |   0.0 |  0.86
Modify  | 1.8227     | 1.8227     | 1.8227     |   0.0 | 31.65
Other   |            | 3.882      |            |       | 67.42

Nlocal:        7.00000 ave           7 max           7 min
Histogram: 1 0 0 0 0 0 0 0 0 0
Nghost:        0.00000 ave           0 max           0 min
Histogram: 1 0 0 0 0 0 0 0 0 0
Neighs:        0.00000 ave           0 max           0 min
Histogram: 1 0 0 0 0 0 0 0 0 0

Total # of neighbors = 0
Ave neighs/atom = 0.0000000
Ave special neighs/atom = 6.0000000
Neighbor list builds = 0
Dangerous builds = 0
Total wall time: 0:00:18
