LAMMPS (29 Oct 2020)
Processor partition = 64
Reading data file ...
  orthogonal box = (-6.0000000 -6.0000000 -6.0000000) to (6.0000000 6.0000000 6.0000000)
  1 by 1 by 1 MPI processor grid
  reading atoms ...
  7 atoms
  scanning bonds ...
  3 = max bonds/atom
  reading bonds ...
  11 bonds
Finding 1-2 1-3 1-4 neighbors ...
  special bond factors lj:    0.0      0.0      0.0     
  special bond factors coul:  0.0      0.0      0.0     
     4 = max # of 1-2 neighbors
     9 = max # of 1-3 neighbors
    28 = max # of 1-4 neighbors
     6 = max # of special neighbors
  special bonds CPU = 0.000 seconds
  read_data CPU = 0.105 seconds
WARNING: Using 'neigh_modify every 1 delay 0 check yes' setting during minimization (../min.cpp:187)
Setting up quickmin style minimization ...
  Unit style    : lj
  Current step  : 0
Per MPI rank memory allocation (min/avg/max) = 4.840 | 4.840 | 4.840 Mbytes
Step Temp E_pair E_mol TotEng Press 
       0            0            0   0.02427229   0.02427229 0.0088075627 
     100 7.8144279e-07            0 2.7230332e-06 3.3928413e-06 1.0029739e-06 
     200 5.1134766e-07            0 1.0550359e-06 1.4933339e-06 5.5236752e-07 
     300 1.9920624e-08            0 3.1112377e-07 3.2819859e-07 2.7677104e-07 
     400 5.0228755e-08            0 7.7583753e-08 1.2063697e-07 1.3720266e-07 
     500 2.0170594e-08            0 1.6754728e-08 3.4043808e-08 6.315794e-08 
     600 1.8712831e-08            0 3.3846563e-09 1.9424226e-08 3.0843218e-08 
     700 1.8087326e-08            0 6.6695329e-10 1.6170376e-08 1.0280203e-08 
     800 4.8401012e-09            0 1.6213244e-10 4.3107907e-09 8.7494737e-10 
     900 3.2739691e-09            0 4.024876e-11 2.846508e-09 -3.8216269e-09 
    1000 4.3413916e-09            0 1.0139235e-11 3.731332e-09 4.4379695e-09 
    1100 5.8816699e-09            0 2.530222e-12 5.0439615e-09 8.8414044e-09 
    1200 4.0637483e-09            0 6.464084e-13 3.4838592e-09 6.4485635e-09 
    1300 3.2549596e-09            0 1.8004063e-13 2.7901454e-09 5.7941165e-09 
    1400 2.9040445e-09            0 6.2805279e-14 2.4892438e-09 6.3143171e-09 
    1500 1.8631581e-09            0 3.5655703e-14 1.5970283e-09 6.637164e-09 
    1600 1.1839556e-09            0 1.8954301e-14 1.0148381e-09 -3.854683e-09 
    1700 1.0167684e-09            0 7.770203e-15 8.7152358e-10 3.2683726e-09 
    1800 6.3545765e-10            0 3.5753481e-15 5.4468156e-10 6.9353116e-10 
    1900 2.8231589e-10            0 2.7284096e-15 2.4198778e-10 9.6630711e-10 
    2000 4.1146664e-10            0 8.6385409e-15 3.5269433e-10 4.2012839e-09 
Loop time of 12.3177 on 1 procs for 2000 steps with 7 atoms

3.6% CPU use with 1 MPI tasks x no OpenMP threads

Minimization stats:
  Stopping criterion = max iterations
  Energy initial, next-to-last, final = 
    0.0242722900286735 6.49193592601705e-15 8.63854091220108e-15
  Force two-norm initial, final = 1.5630287 2.6992467e-05
  Force max component initial, final = 0.73308888 1.6119945e-05
  Final line search alpha, max atom move = 0.0000000 0.0000000
  Iterations, force evaluations = 2000 2000

MPI task timing breakdown:
Section |  min time  |  avg time  |  max time  |%varavg| %total
---------------------------------------------------------------
Pair    | 0          | 0          | 0          |   0.0 |  0.00
Bond    | 0.003146   | 0.003146   | 0.003146   |   0.0 |  0.03
Neigh   | 4e-06      | 4e-06      | 4e-06      |   0.0 |  0.00
Comm    | 0.001327   | 0.001327   | 0.001327   |   0.0 |  0.01
Output  | 0.20613    | 0.20613    | 0.20613    |   0.0 |  1.67
Modify  | 3.7567     | 3.7567     | 3.7567     |   0.0 | 30.50
Other   |            | 8.35       |            |       | 67.79

Nlocal:        7.00000 ave           7 max           7 min
Histogram: 1 0 0 0 0 0 0 0 0 0
Nghost:        0.00000 ave           0 max           0 min
Histogram: 1 0 0 0 0 0 0 0 0 0
Neighs:        0.00000 ave           0 max           0 min
Histogram: 1 0 0 0 0 0 0 0 0 0

Total # of neighbors = 0
Ave neighs/atom = 0.0000000
Ave special neighs/atom = 6.0000000
Neighbor list builds = 1
Dangerous builds = 0
WARNING: Using 'neigh_modify every 1 delay 0 check yes' setting during minimization (../min.cpp:187)
Setting up quickmin style minimization ...
  Unit style    : lj
  Current step  : 2000
Per MPI rank memory allocation (min/avg/max) = 4.840 | 4.840 | 4.840 Mbytes
Step Temp E_pair E_mol TotEng Press 
    2000            0            0 8.6385409e-15 8.6385409e-15 4.1841394e-09 
    2100 8.6402678e-10            0 1.7208892e-15 7.4059611e-10 -1.5892491e-09 
    2200 7.4601314e-10            0 2.0340782e-15 6.3944187e-10 -1.2691812e-09 
    2300 3.8131527e-10            0 1.3300696e-15 3.2684299e-10 -9.1003685e-10 
    2400 5.3542479e-11            0 6.7610931e-16 4.5894229e-11 -5.6592049e-10 
    2500 2.119326e-11            0 2.9830802e-16 1.816595e-11 -3.2806074e-10 
    2600 2.5277677e-11            0 1.2322982e-16 2.1666703e-11 -2.2293034e-10 
    2700 2.7117486e-12            0 4.6001962e-17 2.324402e-12 -1.1281957e-10 
    2800 7.6809515e-13            0 1.7061391e-17 6.5838434e-13 -7.0632891e-11 
    2900 4.8999604e-13            0 6.1290867e-18 4.2000273e-13 -3.7630881e-11 
    3000 1.0067528e-13            0 2.1359056e-18 8.6295235e-14 -2.0444716e-11 
    3100 2.6877234e-14            0 6.5527334e-19 2.3038284e-14 -9.221347e-12 
    3200 9.9672276e-16            0 1.5958246e-19 8.5449338e-16 -2.1699224e-12 
    3300 2.0531776e-15            0 2.9040296e-20 1.7598955e-15 2.1244818e-12 
    3400 7.0399957e-15            0 1.438601e-20 6.0342964e-15 4.4848074e-12 
    3500 9.4090413e-15            0 2.5917487e-20 8.0649185e-15 5.6145701e-12 
    3600 1.0192549e-14            0 3.6593544e-20 8.7365074e-15 5.9747898e-12 
    3700 9.4567487e-15            0 4.0962069e-20 8.1058256e-15 5.8872622e-12 
    3800 7.9413787e-15            0 3.9975167e-20 6.806936e-15 5.5475991e-12 
    3900 6.2398107e-15            0 3.5802267e-20 5.348445e-15 5.0829351e-12 
    4000 4.7862884e-15            0 3.0243552e-20 4.1025631e-15 4.5641983e-12 
Loop time of 5.74419 on 1 procs for 2000 steps with 7 atoms

5.7% CPU use with 1 MPI tasks x no OpenMP threads

Minimization stats:
  Stopping criterion = max iterations
  Energy initial, next-to-last, final = 
    8.63854091220108e-15 3.02503672115102e-20 3.02435516038395e-20
  Force two-norm initial, final = 1.4242850e-05 1.2326747e-07
  Force max component initial, final = 8.6402914e-06 7.2474484e-08
  Final line search alpha, max atom move = 0.0000000 0.0000000
  Iterations, force evaluations = 2000 2000

MPI task timing breakdown:
Section |  min time  |  avg time  |  max time  |%varavg| %total
---------------------------------------------------------------
Pair    | 0          | 0          | 0          |   0.0 |  0.00
Bond    | 0.002608   | 0.002608   | 0.002608   |   0.0 |  0.05
Neigh   | 0          | 0          | 0          |   0.0 |  0.00
Comm    | 0.001181   | 0.001181   | 0.001181   |   0.0 |  0.02
Output  | 0.050573   | 0.050573   | 0.050573   |   0.0 |  0.88
Modify  | 1.7718     | 1.7718     | 1.7718     |   0.0 | 30.84
Other   |            | 3.918      |            |       | 68.21

Nlocal:        7.00000 ave           7 max           7 min
Histogram: 1 0 0 0 0 0 0 0 0 0
Nghost:        0.00000 ave           0 max           0 min
Histogram: 1 0 0 0 0 0 0 0 0 0
Neighs:        0.00000 ave           0 max           0 min
Histogram: 1 0 0 0 0 0 0 0 0 0

Total # of neighbors = 0
Ave neighs/atom = 0.0000000
Ave special neighs/atom = 6.0000000
Neighbor list builds = 0
Dangerous builds = 0
Total wall time: 0:00:18
