LAMMPS (29 Oct 2020)
Processor partition = 56
Reading data file ...
  orthogonal box = (-6.0000000 -6.0000000 -6.0000000) to (6.0000000 6.0000000 6.0000000)
  1 by 1 by 1 MPI processor grid
  reading atoms ...
  7 atoms
  scanning bonds ...
  3 = max bonds/atom
  reading bonds ...
  11 bonds
Finding 1-2 1-3 1-4 neighbors ...
  special bond factors lj:    0.0      0.0      0.0     
  special bond factors coul:  0.0      0.0      0.0     
     4 = max # of 1-2 neighbors
     9 = max # of 1-3 neighbors
    28 = max # of 1-4 neighbors
     6 = max # of special neighbors
  special bonds CPU = 0.000 seconds
  read_data CPU = 0.025 seconds
WARNING: Using 'neigh_modify every 1 delay 0 check yes' setting during minimization (../min.cpp:187)
Setting up quickmin style minimization ...
  Unit style    : lj
  Current step  : 0
Per MPI rank memory allocation (min/avg/max) = 4.840 | 4.840 | 4.840 Mbytes
Step Temp E_pair E_mol TotEng Press 
       0            0            0  0.046563728  0.046563728  0.011550473 
     100 8.7711584e-07            0 7.3838983e-06 8.1357119e-06 1.2340699e-06 
     200 6.7784237e-07            0 5.6950539e-06 6.2760616e-06 7.5313446e-07 
     300 8.9105011e-08            0 3.9186456e-06 3.9950213e-06 6.8381898e-07 
     400 6.1428627e-07            0 2.1056487e-06 2.6321798e-06 6.3138909e-07 
     500 3.2120384e-07            0 8.2400789e-07 1.0993255e-06 4.4112507e-07 
     600 1.4121376e-07            0 2.4756269e-07 3.6860305e-07 2.5177141e-07 
     700 7.8115095e-08            0 6.3582444e-08 1.3053824e-07 1.2345667e-07 
     800 2.9086641e-08            0 1.837765e-08 4.3309056e-08 7.1843903e-08 
     900 1.2952779e-08            0 5.2517757e-09 1.6354158e-08 2.7560042e-08 
    1000 1.6521964e-08            0 1.4891789e-09 1.5650862e-08 3.1016214e-08 
    1100 1.4892361e-08            0 4.0463417e-10 1.3169515e-08 2.3945659e-08 
    1200 1.0102235e-08            0 1.0723581e-10 8.7662942e-09 1.5618047e-08 
    1300 7.9071779e-09            0 2.7925876e-11 6.805507e-09 1.2295763e-08 
    1400 6.8082685e-09            0 7.2213402e-12 5.8428801e-09 1.1937039e-08 
    1500 3.9859127e-09            0 1.9183478e-12 3.4184149e-09 1.1037943e-08 
    1600 2.8165442e-09            0 5.3675821e-13 2.4147175e-09 -6.3694744e-09 
    1700 2.4411544e-09            0 1.5729117e-13 2.0925754e-09 5.8719636e-09 
    1800 1.4500565e-09            0 4.9518051e-14 1.2429551e-09 1.0314224e-09 
    1900 7.2221806e-10            0 2.0349864e-14 6.190644e-10 1.8542969e-09 
    2000 8.8135339e-10            0 2.7985224e-14 7.5547375e-10 6.8815578e-09 
Loop time of 12.3183 on 1 procs for 2000 steps with 7 atoms

3.8% CPU use with 1 MPI tasks x no OpenMP threads

Minimization stats:
  Stopping criterion = max iterations
  Energy initial, next-to-last, final = 
    0.0465637280304876 2.23526407999696e-14 2.79852240799973e-14
  Force two-norm initial, final = 2.2044201 4.3944619e-05
  Force max component initial, final = 1.0941551 2.5072953e-05
  Final line search alpha, max atom move = 0.0000000 0.0000000
  Iterations, force evaluations = 2000 2000

MPI task timing breakdown:
Section |  min time  |  avg time  |  max time  |%varavg| %total
---------------------------------------------------------------
Pair    | 0          | 0          | 0          |   0.0 |  0.00
Bond    | 0.003421   | 0.003421   | 0.003421   |   0.0 |  0.03
Neigh   | 4e-06      | 4e-06      | 4e-06      |   0.0 |  0.00
Comm    | 0.001351   | 0.001351   | 0.001351   |   0.0 |  0.01
Output  | 0.21377    | 0.21377    | 0.21377    |   0.0 |  1.74
Modify  | 3.8947     | 3.8947     | 3.8947     |   0.0 | 31.62
Other   |            | 8.205      |            |       | 66.61

Nlocal:        7.00000 ave           7 max           7 min
Histogram: 1 0 0 0 0 0 0 0 0 0
Nghost:        0.00000 ave           0 max           0 min
Histogram: 1 0 0 0 0 0 0 0 0 0
Neighs:        0.00000 ave           0 max           0 min
Histogram: 1 0 0 0 0 0 0 0 0 0

Total # of neighbors = 0
Ave neighs/atom = 0.0000000
Ave special neighs/atom = 6.0000000
Neighbor list builds = 1
Dangerous builds = 0
WARNING: Using 'neigh_modify every 1 delay 0 check yes' setting during minimization (../min.cpp:187)
Setting up quickmin style minimization ...
  Unit style    : lj
  Current step  : 2000
Per MPI rank memory allocation (min/avg/max) = 4.840 | 4.840 | 4.840 Mbytes
Step Temp E_pair E_mol TotEng Press 
    2000            0            0 2.7985224e-14 2.7985224e-14 6.8448347e-09 
    2100 2.0347567e-09            0 5.1107308e-15 1.7440823e-09 -2.7076357e-09 
    2200 1.755223e-09            0 5.668584e-15 1.5044825e-09 -2.159779e-09 
    2300 8.9661117e-10            0 3.7311166e-15 7.6852759e-10 -1.5506625e-09 
    2400 1.2578966e-10            0 1.9096224e-15 1.0782161e-10 -9.6711493e-10 
    2500 4.9857923e-11            0 8.4832595e-16 4.2736211e-11 -5.6134962e-10 
    2600 5.9456004e-11            0 3.5300275e-16 5.0962642e-11 -3.8261296e-10 
    2700 6.3647749e-12            0 1.3229961e-16 5.4556536e-12 -1.9233977e-10 
    2800 1.8010649e-12            0 4.9283424e-17 1.5438192e-12 -1.2056537e-10 
    2900 1.149621e-12            0 1.7751413e-17 9.854072e-13 -6.3913295e-11 
    3000 2.3612945e-13            0 6.1995116e-18 2.0240287e-13 -3.4801623e-11 
    3100 6.2917766e-14            0 1.9031329e-18 5.3931417e-14 -1.5557687e-11 
    3200 2.2849306e-15            0 4.6316727e-19 1.9589751e-15 -3.4440823e-12 
    3300 4.8889966e-15            0 8.4448851e-20 4.1906529e-15 3.8466833e-12 
    3400 1.6589288e-14            0 4.2319625e-20 1.4219432e-14 7.7576323e-12 
    3500 2.2090897e-14            0 7.6058452e-20 1.8935131e-14 9.5857705e-12 
    3600 2.3884619e-14            0 1.0718853e-19 2.0472638e-14 1.0138416e-11 
    3700 2.2147794e-14            0 1.1996609e-19 1.8983944e-14 9.9749992e-12 
    3800 1.8602797e-14            0 1.1713711e-19 1.5945371e-14 9.4100391e-12 
    3900 1.462539e-14            0 1.0498165e-19 1.2536153e-14 8.6407903e-12 
    4000 1.1227282e-14            0 8.8739256e-20 9.6234736e-15 7.7772927e-12 
Loop time of 5.74412 on 1 procs for 2000 steps with 7 atoms

6.0% CPU use with 1 MPI tasks x no OpenMP threads

Minimization stats:
  Stopping criterion = max iterations
  Energy initial, next-to-last, final = 
    2.79852240799973e-14 8.9043884446412e-20 8.87392555001153e-20
  Force two-norm initial, final = 2.4394645e-05 1.8920808e-07
  Force max component initial, final = 1.4169522e-05 1.0594050e-07
  Final line search alpha, max atom move = 0.0000000 0.0000000
  Iterations, force evaluations = 2000 2000

MPI task timing breakdown:
Section |  min time  |  avg time  |  max time  |%varavg| %total
---------------------------------------------------------------
Pair    | 0          | 0          | 0          |   0.0 |  0.00
Bond    | 0.002846   | 0.002846   | 0.002846   |   0.0 |  0.05
Neigh   | 0          | 0          | 0          |   0.0 |  0.00
Comm    | 0.001092   | 0.001092   | 0.001092   |   0.0 |  0.02
Output  | 0.050486   | 0.050486   | 0.050486   |   0.0 |  0.88
Modify  | 1.8858     | 1.8858     | 1.8858     |   0.0 | 32.83
Other   |            | 3.804      |            |       | 66.22

Nlocal:        7.00000 ave           7 max           7 min
Histogram: 1 0 0 0 0 0 0 0 0 0
Nghost:        0.00000 ave           0 max           0 min
Histogram: 1 0 0 0 0 0 0 0 0 0
Neighs:        0.00000 ave           0 max           0 min
Histogram: 1 0 0 0 0 0 0 0 0 0

Total # of neighbors = 0
Ave neighs/atom = 0.0000000
Ave special neighs/atom = 6.0000000
Neighbor list builds = 0
Dangerous builds = 0
Total wall time: 0:00:18
