LAMMPS (29 Oct 2020)
Processor partition = 44
Reading data file ...
  orthogonal box = (-6.0000000 -6.0000000 -6.0000000) to (6.0000000 6.0000000 6.0000000)
  1 by 1 by 1 MPI processor grid
  reading atoms ...
  7 atoms
  scanning bonds ...
  3 = max bonds/atom
  reading bonds ...
  11 bonds
Finding 1-2 1-3 1-4 neighbors ...
  special bond factors lj:    0.0      0.0      0.0     
  special bond factors coul:  0.0      0.0      0.0     
     4 = max # of 1-2 neighbors
     9 = max # of 1-3 neighbors
    28 = max # of 1-4 neighbors
     6 = max # of special neighbors
  special bonds CPU = 0.000 seconds
  read_data CPU = 0.093 seconds
WARNING: Using 'neigh_modify every 1 delay 0 check yes' setting during minimization (../min.cpp:187)
Setting up quickmin style minimization ...
  Unit style    : lj
  Current step  : 0
Per MPI rank memory allocation (min/avg/max) = 4.840 | 4.840 | 4.840 Mbytes
Step Temp E_pair E_mol TotEng Press 
       0            0            0  0.070079655  0.070079655  0.013517012 
     100 1.6886587e-06            0 7.9146156e-06 9.3620373e-06 8.5313727e-07 
     200 6.2383244e-07            0 5.4653518e-06 6.0000653e-06 -1.5370008e-07 
     300 6.4562937e-08            0 4.1325458e-06 4.1878854e-06 -4.0005289e-07 
     400 4.9529863e-07            0 2.8826056e-06 3.3071473e-06 -3.7332529e-07 
     500 3.9987772e-07            0 1.8230858e-06 2.1658381e-06 -3.1197686e-07 
     600 3.3707945e-07            0 1.068604e-06 1.3575293e-06 -2.3986589e-07 
     700 3.2414806e-07            0 5.9455745e-07 8.7239864e-07 -1.7403996e-07 
     800 1.4686383e-07            0 3.4690977e-07 4.7279306e-07 -1.0776023e-07 
     900 7.9831725e-08            0 1.9945727e-07 2.6788447e-07 -1.2761951e-07 
    1000 4.8010291e-08            0 1.1289946e-07 1.5405114e-07 -5.9212993e-08 
    1100 5.874254e-08            0 6.1874656e-08 1.122254e-07 -2.2838645e-08 
    1200 4.6709374e-08            0 3.304982e-08 7.3086427e-08 -1.7663417e-08 
    1300 3.5565659e-08            0 1.7240556e-08 4.7725406e-08 -8.3980449e-09 
    1400 2.6092251e-08            0 8.7953146e-09 3.1160101e-08 5.334864e-09 
    1500 8.7961808e-09            0 4.4152836e-09 1.1954867e-08 2.1077796e-08 
    1600 1.0620177e-08            0 2.1846872e-09 1.1287696e-08 -4.0506974e-08 
    1700 1.0489817e-08            0 1.0762415e-09 1.0067513e-08 4.8016361e-09 
    1800 4.4874081e-09            0 5.2041625e-10 4.3667661e-09 -2.1536938e-09 
    1900 3.7940354e-09            0 2.4960265e-10 3.501633e-09 -4.4753256e-09 
    2000 2.1868633e-09            0 1.1881376e-10 1.993268e-09 2.6454478e-08 
Loop time of 12.3174 on 1 procs for 2000 steps with 7 atoms

3.8% CPU use with 1 MPI tasks x no OpenMP threads

Minimization stats:
  Stopping criterion = max iterations
  Energy initial, next-to-last, final = 
    0.0700796549131314 1.19570595950279e-10 1.18813763543833e-10
  Force two-norm initial, final = 2.7560485 0.00010413826
  Force max component initial, final = 1.4494779 4.5881889e-05
  Final line search alpha, max atom move = 0.0000000 0.0000000
  Iterations, force evaluations = 2000 2000

MPI task timing breakdown:
Section |  min time  |  avg time  |  max time  |%varavg| %total
---------------------------------------------------------------
Pair    | 0          | 0          | 0          |   0.0 |  0.00
Bond    | 0.003198   | 0.003198   | 0.003198   |   0.0 |  0.03
Neigh   | 2e-06      | 2e-06      | 2e-06      |   0.0 |  0.00
Comm    | 0.001344   | 0.001344   | 0.001344   |   0.0 |  0.01
Output  | 0.20822    | 0.20822    | 0.20822    |   0.0 |  1.69
Modify  | 3.9313     | 3.9313     | 3.9313     |   0.0 | 31.92
Other   |            | 8.173      |            |       | 66.36

Nlocal:        7.00000 ave           7 max           7 min
Histogram: 1 0 0 0 0 0 0 0 0 0
Nghost:        0.00000 ave           0 max           0 min
Histogram: 1 0 0 0 0 0 0 0 0 0
Neighs:        0.00000 ave           0 max           0 min
Histogram: 1 0 0 0 0 0 0 0 0 0

Total # of neighbors = 0
Ave neighs/atom = 0.0000000
Ave special neighs/atom = 6.0000000
Neighbor list builds = 1
Dangerous builds = 0
WARNING: Using 'neigh_modify every 1 delay 0 check yes' setting during minimization (../min.cpp:187)
Setting up quickmin style minimization ...
  Unit style    : lj
  Current step  : 2000
Per MPI rank memory allocation (min/avg/max) = 4.840 | 4.840 | 4.840 Mbytes
Step Temp E_pair E_mol TotEng Press 
    2000            0            0 1.1881376e-10 1.1881376e-10 2.6363359e-08 
    2100 9.7524129e-09            0 6.5534725e-11 8.4247458e-09 -2.2941404e-10 
    2200 8.5698884e-09            0 3.4682453e-11 7.3803011e-09 -8.5262801e-09 
    2300 6.6720273e-09            0 1.8256612e-11 5.7371372e-09 -2.2818134e-08 
    2400 5.8468635e-09            0 9.2085167e-12 5.0208058e-09 2.9632097e-09 
    2500 4.3960348e-09            0  4.81058e-12 3.7728404e-09 2.3236467e-08 
    2600  2.49529e-09            0 2.5552222e-12 2.1413752e-09 -2.3667287e-08 
    2700 2.4051235e-09            0 1.2849899e-12 2.0628194e-09 2.1950818e-08 
    2800 1.2265297e-09            0 5.1172444e-13 1.0518229e-09 3.0325631e-09 
    2900 6.5271125e-10            0 2.5398288e-13 5.5972076e-10 3.8800007e-09 
    3000 3.8499674e-10            0 1.2680331e-13 3.3012401e-10 -1.8442787e-09 
    3100 2.9196298e-10            0 8.2595979e-14 2.5033658e-10 -5.7641879e-09 
    3200 2.5551966e-10            0 4.1156262e-14  2.19058e-10 -4.1209945e-09 
    3300 2.1927243e-10            0 1.553677e-14 1.8796333e-10 -1.5507835e-09 
    3400 1.7788301e-10            0 5.7321245e-15 1.5247688e-10 3.7506531e-10 
    3500 1.328565e-10            0 3.2268047e-15 1.1388023e-10 1.6643629e-09 
    3600 9.4022838e-11            0 1.5709029e-15 8.0592575e-11 1.3868924e-09 
    3700 6.8898016e-11            0 1.2507243e-15 5.9056693e-11 1.5631892e-09 
    3800 4.8376413e-11            0 7.5103279e-16 4.1466248e-11 1.307076e-09 
    3900 3.3744876e-11            0 5.9387942e-16 2.8924774e-11 1.2013896e-09 
    4000 2.2825515e-11            0 4.0474636e-16 1.9565132e-11 9.9634653e-10 
Loop time of 5.74468 on 1 procs for 2000 steps with 7 atoms

6.1% CPU use with 1 MPI tasks x no OpenMP threads

Minimization stats:
  Stopping criterion = max iterations
  Energy initial, next-to-last, final = 
    1.18813763543833e-10 3.37993887514313e-16 4.04746363262276e-16
  Force two-norm initial, final = 0.00012577881 6.8327361e-06
  Force max component initial, final = 5.6371352e-05 3.2177812e-06
  Final line search alpha, max atom move = 0.0000000 0.0000000
  Iterations, force evaluations = 2000 2000

MPI task timing breakdown:
Section |  min time  |  avg time  |  max time  |%varavg| %total
---------------------------------------------------------------
Pair    | 0          | 0          | 0          |   0.0 |  0.00
Bond    | 0.002559   | 0.002559   | 0.002559   |   0.0 |  0.04
Neigh   | 0          | 0          | 0          |   0.0 |  0.00
Comm    | 0.001179   | 0.001179   | 0.001179   |   0.0 |  0.02
Output  | 0.051316   | 0.051316   | 0.051316   |   0.0 |  0.89
Modify  | 1.8668     | 1.8668     | 1.8668     |   0.0 | 32.50
Other   |            | 3.823      |            |       | 66.55

Nlocal:        7.00000 ave           7 max           7 min
Histogram: 1 0 0 0 0 0 0 0 0 0
Nghost:        0.00000 ave           0 max           0 min
Histogram: 1 0 0 0 0 0 0 0 0 0
Neighs:        0.00000 ave           0 max           0 min
Histogram: 1 0 0 0 0 0 0 0 0 0

Total # of neighbors = 0
Ave neighs/atom = 0.0000000
Ave special neighs/atom = 6.0000000
Neighbor list builds = 0
Dangerous builds = 0
Total wall time: 0:00:18
