LAMMPS (29 Oct 2020)
Processor partition = 23
Reading data file ...
  orthogonal box = (-6.0000000 -6.0000000 -6.0000000) to (6.0000000 6.0000000 6.0000000)
  1 by 1 by 1 MPI processor grid
  reading atoms ...
  7 atoms
  scanning bonds ...
  3 = max bonds/atom
  reading bonds ...
  11 bonds
Finding 1-2 1-3 1-4 neighbors ...
  special bond factors lj:    0.0      0.0      0.0     
  special bond factors coul:  0.0      0.0      0.0     
     4 = max # of 1-2 neighbors
     9 = max # of 1-3 neighbors
    28 = max # of 1-4 neighbors
     6 = max # of special neighbors
  special bonds CPU = 0.000 seconds
  read_data CPU = 0.067 seconds
WARNING: Using 'neigh_modify every 1 delay 0 check yes' setting during minimization (../min.cpp:187)
Setting up quickmin style minimization ...
  Unit style    : lj
  Current step  : 0
Per MPI rank memory allocation (min/avg/max) = 4.840 | 4.840 | 4.840 Mbytes
Step Temp E_pair E_mol TotEng Press 
       0            0            0  0.047308373  0.047308373  0.011614025 
     100 1.2445989e-06            0 1.418604e-06 2.485403e-06 8.9188194e-07 
     200 1.122143e-07            0 2.1553279e-07 3.1171647e-07 6.4735182e-08 
     300 4.1901304e-09            0 9.0790232e-08 9.4381772e-08 -5.5143339e-08 
     400 2.9216342e-08            0 4.2752911e-08 6.7795489e-08 -4.6439663e-08 
     500 3.1830419e-08            0 1.9648978e-08 4.6932194e-08 -3.0933232e-08 
     600 4.2308466e-08            0 8.9113523e-09 4.5175752e-08 -1.6265601e-08 
     700 4.5216254e-08            0 4.0168954e-09 4.2773685e-08 -2.1510193e-08 
     800 2.1837364e-08            0 2.0037105e-09 2.0721451e-08 -9.5291625e-09 
     900 1.2146842e-08            0 1.0043425e-09 1.1415921e-08 -2.1110284e-08 
    1000 1.757178e-08            0 5.0266069e-10 1.5564187e-08 1.905674e-08 
    1100 1.5559077e-08            0 2.4545406e-10 1.3581806e-08 1.513158e-08 
    1200 1.054359e-08            0 1.1776956e-10 9.1551327e-09 8.6881211e-09 
    1300 8.1963073e-09            0 5.5576154e-11 7.0809824e-09 8.3263901e-09 
    1400 7.0003839e-09            0 2.5818503e-11 6.0261475e-09 1.2292502e-08 
    1500 3.9015979e-09            0 1.2068563e-11 3.3562953e-09 2.2388775e-08 
    1600 2.7278778e-09            0 5.4335698e-12 2.3436146e-09 -1.2507216e-08 
    1700  2.52331e-09            0 2.4235079e-12 2.1652606e-09 5.2263708e-09 
    1800 1.4185254e-09            0 1.0730014e-12 1.2169519e-09 3.0146442e-09 
    1900 7.3434677e-10            0 4.7188913e-13 6.2991198e-10 -8.9274707e-10 
    2000 8.9661936e-10            0 3.0598672e-13 7.6883687e-10 1.4690079e-08 
Loop time of 12.3159 on 1 procs for 2000 steps with 7 atoms

4.0% CPU use with 1 MPI tasks x no OpenMP threads

Minimization stats:
  Stopping criterion = max iterations
  Energy initial, next-to-last, final = 
    0.0473083726973213 2.84984965030314e-13 3.05986722801891e-13
  Force two-norm initial, final = 2.2422683 4.3964279e-05
  Force max component initial, final = 1.1635837 2.1826632e-05
  Final line search alpha, max atom move = 0.0000000 0.0000000
  Iterations, force evaluations = 2000 2000

MPI task timing breakdown:
Section |  min time  |  avg time  |  max time  |%varavg| %total
---------------------------------------------------------------
Pair    | 0          | 0          | 0          |   0.0 |  0.00
Bond    | 0.002887   | 0.002887   | 0.002887   |   0.0 |  0.02
Neigh   | 1e-06      | 1e-06      | 1e-06      |   0.0 |  0.00
Comm    | 0.00148    | 0.00148    | 0.00148    |   0.0 |  0.01
Output  | 0.21287    | 0.21287    | 0.21287    |   0.0 |  1.73
Modify  | 3.886      | 3.886      | 3.886      |   0.0 | 31.55
Other   |            | 8.213      |            |       | 66.68

Nlocal:        7.00000 ave           7 max           7 min
Histogram: 1 0 0 0 0 0 0 0 0 0
Nghost:        0.00000 ave           0 max           0 min
Histogram: 1 0 0 0 0 0 0 0 0 0
Neighs:        0.00000 ave           0 max           0 min
Histogram: 1 0 0 0 0 0 0 0 0 0

Total # of neighbors = 0
Ave neighs/atom = 0.0000000
Ave special neighs/atom = 6.0000000
Neighbor list builds = 1
Dangerous builds = 0
WARNING: Using 'neigh_modify every 1 delay 0 check yes' setting during minimization (../min.cpp:187)
Setting up quickmin style minimization ...
  Unit style    : lj
  Current step  : 2000
Per MPI rank memory allocation (min/avg/max) = 4.840 | 4.840 | 4.840 Mbytes
Step Temp E_pair E_mol TotEng Press 
    2000            0            0 3.0598672e-13 3.0598672e-13 1.4652719e-08 
    2100 4.3137166e-09            0 1.4609539e-13 3.6976175e-09 1.2351091e-08 
    2200 2.4561535e-09            0 3.9792061e-14 2.1053142e-09 -1.9250828e-09 
    2300 1.6989406e-09            0 7.7515309e-14 1.4563124e-09 -1.0058775e-08 
    2400 1.3981465e-09            0 9.7279578e-15 1.198421e-09 4.8243868e-09 
    2500 1.3292708e-09            0 3.490122e-15 1.1393785e-09 2.1104888e-09 
    2600 7.5365176e-10            0 3.4436036e-15 6.4599067e-10 2.5802397e-09 
    2700 7.0814659e-10            0 1.623507e-14 6.0699902e-10 6.5643353e-09 
    2800 2.5629682e-10            0 1.0296203e-15 2.1968402e-10 1.7782131e-09 
    2900 1.952054e-10            0 1.6160473e-15 1.6732053e-10 2.0674712e-09 
    3000 1.4611765e-10            0 3.7723762e-15 1.2524748e-10 2.6947592e-09 
    3100 1.0506254e-10            0 5.6111201e-16 9.0054164e-11 1.1324711e-09 
    3200 6.9633418e-11            0 3.4443208e-16 5.9686131e-11 2.1665219e-10 
    3300 4.5885529e-11            0 3.8337707e-16 3.9330837e-11 -6.2598208e-10 
    3400 3.2430033e-11            0 2.0658398e-17 2.7797192e-11 -8.1036628e-11 
    3500 2.1589562e-11            0 7.5173223e-17 1.8505414e-11 -2.5939408e-10 
    3600 1.6141802e-11            0 1.2511978e-17 1.3835843e-11 8.6634248e-11 
    3700 1.1882963e-11            0 3.9602374e-17 1.0185436e-11 2.6160002e-10 
    3800 8.9987872e-12            0 3.7505379e-17 7.7132837e-12 2.3815238e-10 
    3900 6.677074e-12            0 1.8507294e-17 5.7232248e-12 1.3484221e-10 
    4000 5.2528081e-12            0 7.9770405e-18 4.5024149e-12 -7.2639274e-11 
Loop time of 5.748 on 1 procs for 2000 steps with 7 atoms

6.4% CPU use with 1 MPI tasks x no OpenMP threads

Minimization stats:
  Stopping criterion = max iterations
  Energy initial, next-to-last, final = 
    3.05986722801891e-13 1.84503149505031e-17 7.97704050084561e-18
  Force two-norm initial, final = 5.5282030e-05 3.8783346e-06
  Force max component initial, final = 2.7465125e-05 1.9254587e-06
  Final line search alpha, max atom move = 0.0000000 0.0000000
  Iterations, force evaluations = 2000 2000

MPI task timing breakdown:
Section |  min time  |  avg time  |  max time  |%varavg| %total
---------------------------------------------------------------
Pair    | 0          | 0          | 0          |   0.0 |  0.00
Bond    | 0.002406   | 0.002406   | 0.002406   |   0.0 |  0.04
Neigh   | 0          | 0          | 0          |   0.0 |  0.00
Comm    | 0.001256   | 0.001256   | 0.001256   |   0.0 |  0.02
Output  | 0.050826   | 0.050826   | 0.050826   |   0.0 |  0.88
Modify  | 1.8476     | 1.8476     | 1.8476     |   0.0 | 32.14
Other   |            | 3.846      |            |       | 66.91

Nlocal:        7.00000 ave           7 max           7 min
Histogram: 1 0 0 0 0 0 0 0 0 0
Nghost:        0.00000 ave           0 max           0 min
Histogram: 1 0 0 0 0 0 0 0 0 0
Neighs:        0.00000 ave           0 max           0 min
Histogram: 1 0 0 0 0 0 0 0 0 0

Total # of neighbors = 0
Ave neighs/atom = 0.0000000
Ave special neighs/atom = 6.0000000
Neighbor list builds = 0
Dangerous builds = 0
Total wall time: 0:00:18
