LAMMPS (29 Oct 2020)
Processor partition = 11
Reading data file ...
  orthogonal box = (-6.0000000 -6.0000000 -6.0000000) to (6.0000000 6.0000000 6.0000000)
  1 by 1 by 1 MPI processor grid
  reading atoms ...
  7 atoms
  scanning bonds ...
  3 = max bonds/atom
  reading bonds ...
  11 bonds
Finding 1-2 1-3 1-4 neighbors ...
  special bond factors lj:    0.0      0.0      0.0     
  special bond factors coul:  0.0      0.0      0.0     
     4 = max # of 1-2 neighbors
     8 = max # of 1-3 neighbors
    24 = max # of 1-4 neighbors
     6 = max # of special neighbors
  special bonds CPU = 0.000 seconds
  read_data CPU = 0.026 seconds
WARNING: Using 'neigh_modify every 1 delay 0 check yes' setting during minimization (../min.cpp:187)
Setting up quickmin style minimization ...
  Unit style    : lj
  Current step  : 0
Per MPI rank memory allocation (min/avg/max) = 4.840 | 4.840 | 4.840 Mbytes
Step Temp E_pair E_mol TotEng Press 
       0            0            0 0.00015171718 0.00015171718 -0.00023026285 
     100 1.3867609e-10            0 3.3681245e-09 3.4869898e-09 -1.2126274e-08 
     200 2.9786571e-11            0 3.2179015e-09 3.2434328e-09 5.7962746e-09 
     300 3.2481265e-11            0 3.0925767e-09 3.1204178e-09 5.6736378e-09 
     400 4.581015e-12            0 2.9841626e-09 2.9880892e-09 5.5624787e-09 
     500 1.8666797e-11            0 2.8818333e-09 2.8978334e-09 5.4576741e-09 
     600 2.9457819e-11            0 2.7782393e-09 2.8034888e-09 5.3498331e-09 
     700 3.5717637e-11            0 2.6790033e-09 2.7096184e-09 5.2447556e-09 
     800 3.3217883e-11            0 2.5832137e-09 2.6116861e-09 5.1414195e-09 
     900 3.3046287e-12            0 2.4939086e-09 2.4967411e-09 5.042493e-09 
    1000 6.9611891e-12            0 2.4032822e-09 2.4092489e-09 4.9417621e-09 
    1100 2.7768468e-11            0 2.3186448e-09 2.3424463e-09 4.8472975e-09 
    1200 1.2401743e-11            0 2.2362366e-09 2.2468666e-09 4.7523278e-09 
    1300 3.2779114e-11            0 2.1575092e-09 2.1856056e-09 4.6612286e-09 
    1400 7.7317403e-12            0 2.0865701e-09 2.0931973e-09 4.576829e-09 
    1500 2.1942525e-12            0 2.0156934e-09 2.0175742e-09 4.4917215e-09 
    1600 4.4105079e-12            0 1.9487313e-09 1.9525117e-09 4.4104408e-09 
    1700 3.6465082e-12            0 1.8808176e-09 1.8839431e-09 4.3266487e-09 
    1800 3.4819566e-12            0 1.8152797e-09 1.8182643e-09 4.2445715e-09 
    1900 7.4743114e-12            0 1.7538202e-09 1.7602267e-09 4.1666052e-09 
    2000 1.1898101e-11            0 1.6940796e-09 1.7042779e-09 4.0897043e-09 
Loop time of 0.510942 on 1 procs for 2000 steps with 7 atoms

20.7% CPU use with 1 MPI tasks x no OpenMP threads

Minimization stats:
  Stopping criterion = max iterations
  Energy initial, next-to-last, final = 
    0.000151717179787429 1.69476313697988e-09 1.69407957073795e-09
  Force two-norm initial, final = 0.092174628 4.1481081e-06
  Force max component initial, final = 0.060320619 2.3111674e-06
  Final line search alpha, max atom move = 0.0000000 0.0000000
  Iterations, force evaluations = 2000 2000

MPI task timing breakdown:
Section |  min time  |  avg time  |  max time  |%varavg| %total
---------------------------------------------------------------
Pair    | 0          | 0          | 0          |   0.0 |  0.00
Bond    | 0.001082   | 0.001082   | 0.001082   |   0.0 |  0.21
Neigh   | 0          | 0          | 0          |   0.0 |  0.00
Comm    | 0.00045    | 0.00045    | 0.00045    |   0.0 |  0.09
Output  | 0.23081    | 0.23081    | 0.23081    |   0.0 | 45.17
Modify  | 0.086451   | 0.086451   | 0.086451   |   0.0 | 16.92
Other   |            | 0.1922     |            |       | 37.61

Nlocal:        7.00000 ave           7 max           7 min
Histogram: 1 0 0 0 0 0 0 0 0 0
Nghost:        0.00000 ave           0 max           0 min
Histogram: 1 0 0 0 0 0 0 0 0 0
Neighs:        0.00000 ave           0 max           0 min
Histogram: 1 0 0 0 0 0 0 0 0 0

Total # of neighbors = 0
Ave neighs/atom = 0.0000000
Ave special neighs/atom = 6.0000000
Neighbor list builds = 0
Dangerous builds = 0
WARNING: Using 'neigh_modify every 1 delay 0 check yes' setting during minimization (../min.cpp:187)
Setting up quickmin style minimization ...
  Unit style    : lj
  Current step  : 2000
Per MPI rank memory allocation (min/avg/max) = 4.840 | 4.840 | 4.840 Mbytes
Step Temp E_pair E_mol TotEng Press 
    2000            0            0 1.6940796e-09 1.6940796e-09 4.0892085e-09 
    2100 8.6587265e-12            0 1.6382768e-09 1.6456986e-09 4.0165055e-09 
    2200 1.4443195e-11            0 1.5819672e-09 1.594347e-09 3.9419058e-09 
    2300 1.503346e-11            0 1.5292413e-09 1.5421271e-09 3.8708099e-09 
    2400 9.6456158e-12            0 1.4771942e-09 1.4854619e-09 3.7993284e-09 
    2500 1.5680561e-11            0 1.4255941e-09 1.4390346e-09 3.7278417e-09 
    2600 2.5650645e-12            0 1.3793967e-09 1.3815953e-09 3.6621146e-09 
    2700 2.3966501e-12            0 1.3314127e-09 1.3334669e-09 3.5933788e-09 
    2800 3.4937569e-12            0 1.2877093e-09 1.2907039e-09 3.5298765e-09 
    2900 2.5971775e-12            0 1.2414466e-09 1.2436728e-09 3.4647271e-09 
    3000 3.4146846e-12            0 1.1995594e-09 1.2024862e-09 3.3987994e-09 
    3100 2.7547882e-12            0 1.1610596e-09 1.1634209e-09 3.3401274e-09 
    3200 3.5172667e-12            0 1.1235625e-09 1.1265773e-09 3.2822611e-09 
    3300 7.982526e-12            0 1.0864116e-09 1.0932538e-09 3.2242339e-09 
    3400 4.602828e-12            0 1.0500647e-09  1.05401e-09 3.1662866e-09 
    3500 8.0824837e-12            0 1.015064e-09 1.0219919e-09 3.1099181e-09 
    3600 1.2298508e-11            0 9.8091746e-10 9.9145904e-10 3.0540999e-09 
    3700 6.8493587e-12            0 9.4829275e-10 9.5416363e-10 2.9997321e-09 
    3800 1.0321561e-11            0 9.1743824e-10 9.2628529e-10 2.9476301e-09 
    3900 1.0227501e-12            0 8.8686813e-10 8.8774477e-10 2.894835e-09 
    4000 5.9136398e-12            0 8.5981115e-10 8.6487999e-10 2.8479684e-09 
Loop time of 0.098423 on 1 procs for 2000 steps with 7 atoms

59.4% CPU use with 1 MPI tasks x no OpenMP threads

Minimization stats:
  Stopping criterion = max iterations
  Energy initial, next-to-last, final = 
    1.69407957073795e-09 8.60147112099677e-10 8.5981115239875e-10
  Force two-norm initial, final = 4.1481081e-06 2.8906108e-06
  Force max component initial, final = 2.3111674e-06 1.6106819e-06
  Final line search alpha, max atom move = 0.0000000 0.0000000
  Iterations, force evaluations = 2000 2000

MPI task timing breakdown:
Section |  min time  |  avg time  |  max time  |%varavg| %total
---------------------------------------------------------------
Pair    | 0          | 0          | 0          |   0.0 |  0.00
Bond    | 0.000736   | 0.000736   | 0.000736   |   0.0 |  0.75
Neigh   | 0          | 0          | 0          |   0.0 |  0.00
Comm    | 0.000255   | 0.000255   | 0.000255   |   0.0 |  0.26
Output  | 0.026602   | 0.026602   | 0.026602   |   0.0 | 27.03
Modify  | 0.023362   | 0.023362   | 0.023362   |   0.0 | 23.74
Other   |            | 0.04747    |            |       | 48.23

Nlocal:        7.00000 ave           7 max           7 min
Histogram: 1 0 0 0 0 0 0 0 0 0
Nghost:        0.00000 ave           0 max           0 min
Histogram: 1 0 0 0 0 0 0 0 0 0
Neighs:        0.00000 ave           0 max           0 min
Histogram: 1 0 0 0 0 0 0 0 0 0

Total # of neighbors = 0
Ave neighs/atom = 0.0000000
Ave special neighs/atom = 6.0000000
Neighbor list builds = 0
Dangerous builds = 0
Total wall time: 0:00:00
