LAMMPS (29 Oct 2020)
Processor partition = 25
Reading data file ...
  orthogonal box = (-6.0000000 -6.0000000 -6.0000000) to (6.0000000 6.0000000 6.0000000)
  1 by 1 by 1 MPI processor grid
  reading atoms ...
  7 atoms
  scanning bonds ...
  3 = max bonds/atom
  reading bonds ...
  11 bonds
Finding 1-2 1-3 1-4 neighbors ...
  special bond factors lj:    0.0      0.0      0.0     
  special bond factors coul:  0.0      0.0      0.0     
     4 = max # of 1-2 neighbors
     9 = max # of 1-3 neighbors
    28 = max # of 1-4 neighbors
     6 = max # of special neighbors
  special bonds CPU = 0.000 seconds
  read_data CPU = 0.071 seconds
WARNING: Using 'neigh_modify every 1 delay 0 check yes' setting during minimization (../min.cpp:187)
Setting up quickmin style minimization ...
  Unit style    : lj
  Current step  : 0
Per MPI rank memory allocation (min/avg/max) = 4.840 | 4.840 | 4.840 Mbytes
Step Temp E_pair E_mol TotEng Press 
       0            0            0  0.052481409  0.052481409  0.012100493 
     100 1.4173746e-06            0 1.7817938e-06 2.9966863e-06 9.2268263e-07 
     200 1.5566248e-07            0 3.3071801e-07 4.6414299e-07 5.6006496e-08 
     300 6.1806384e-09            0 1.4530732e-07 1.5060501e-07 -7.3479353e-08 
     400 3.9694083e-08            0 6.9291423e-08 1.0331492e-07 -6.0287361e-08 
     500  4.00728e-08            0 3.2106421e-08 6.6454536e-08 -4.0293956e-08 
     600 5.1078925e-08            0 1.4643411e-08 5.8425346e-08 -2.2268165e-08 
     700 5.5642681e-08            0 6.6273628e-09 5.4321089e-08 -2.45182e-08 
     800 3.018192e-08            0 3.3148515e-09 2.9185069e-08 -5.564954e-09 
     900 1.5634102e-08            0 1.6651459e-09 1.5065805e-08 -2.2230848e-08 
    1000 2.1466567e-08            0 8.3505163e-10 1.9234966e-08 2.1885803e-08 
    1100 1.8547895e-08            0 4.0855042e-10 1.6306746e-08 1.6378304e-08 
    1200 1.2676535e-08            0 1.9642934e-10 1.106203e-08 9.4473897e-09 
    1300 9.8344276e-09            0 9.2899313e-11 8.5224087e-09 9.1265254e-09 
    1400 8.2895728e-09            0 4.3251261e-11 7.1485994e-09 1.3499763e-08 
    1500 4.4240627e-09            0 2.0165664e-11 3.8122194e-09 2.4226009e-08 
    1600 3.223618e-09            0 9.1338487e-12 2.772235e-09 -1.416118e-08 
    1700 3.0178779e-09            0 4.1053541e-12 2.5908579e-09 5.8174965e-09 
    1800 1.6524405e-09            0 1.8272119e-12 1.4182048e-09 3.1598996e-09 
    1900 8.959755e-10            0 8.0785484e-13 7.6878685e-10 -9.7009521e-10 
    2000 1.0274159e-09            0 4.7742367e-13 8.8111962e-10 1.6240359e-08 
Loop time of 12.3193 on 1 procs for 2000 steps with 7 atoms

4.0% CPU use with 1 MPI tasks x no OpenMP threads

Minimization stats:
  Stopping criterion = max iterations
  Energy initial, next-to-last, final = 
    0.0524814087361071 4.52697007737843e-13 4.77423674567782e-13
  Force two-norm initial, final = 2.3692519 4.8730589e-05
  Force max component initial, final = 1.2390513 2.4206693e-05
  Final line search alpha, max atom move = 0.0000000 0.0000000
  Iterations, force evaluations = 2000 2000

MPI task timing breakdown:
Section |  min time  |  avg time  |  max time  |%varavg| %total
---------------------------------------------------------------
Pair    | 0          | 0          | 0          |   0.0 |  0.00
Bond    | 0.003347   | 0.003347   | 0.003347   |   0.0 |  0.03
Neigh   | 3e-06      | 3e-06      | 3e-06      |   0.0 |  0.00
Comm    | 0.001299   | 0.001299   | 0.001299   |   0.0 |  0.01
Output  | 0.19959    | 0.19959    | 0.19959    |   0.0 |  1.62
Modify  | 3.8928     | 3.8928     | 3.8928     |   0.0 | 31.60
Other   |            | 8.222      |            |       | 66.74

Nlocal:        7.00000 ave           7 max           7 min
Histogram: 1 0 0 0 0 0 0 0 0 0
Nghost:        0.00000 ave           0 max           0 min
Histogram: 1 0 0 0 0 0 0 0 0 0
Neighs:        0.00000 ave           0 max           0 min
Histogram: 1 0 0 0 0 0 0 0 0 0

Total # of neighbors = 0
Ave neighs/atom = 0.0000000
Ave special neighs/atom = 6.0000000
Neighbor list builds = 1
Dangerous builds = 0
WARNING: Using 'neigh_modify every 1 delay 0 check yes' setting during minimization (../min.cpp:187)
Setting up quickmin style minimization ...
  Unit style    : lj
  Current step  : 2000
Per MPI rank memory allocation (min/avg/max) = 4.840 | 4.840 | 4.840 Mbytes
Step Temp E_pair E_mol TotEng Press 
    2000            0            0 4.7742367e-13 4.7742367e-13 1.619755e-08 
    2100 4.6881502e-09            0 2.0207748e-13 4.0186166e-09 1.1379889e-08 
    2200 2.8134622e-09            0 7.2325765e-14 2.4116113e-09 -3.2245884e-09 
    2300 2.0371224e-09            0 1.0140799e-13 1.7462063e-09 -1.1024071e-08 
    2400 1.6203992e-09            0 7.3534015e-15 1.388921e-09 3.6760379e-10 
    2500 1.4713203e-09            0 4.2023613e-15 1.2611359e-09 2.2970638e-09 
    2600 8.1582577e-10            0 5.9841368e-14 6.9933908e-10 -1.1154025e-08 
    2700 7.3337795e-10            0 6.9558492e-15 6.2861663e-10 4.3555472e-09 
    2800 2.605831e-10            0 5.0299536e-16 2.2335744e-10 -7.1709842e-10 
    2900 1.9244393e-10            0 1.8845939e-15 1.6495383e-10 2.6296098e-09 
    3000 1.3878614e-10            0 1.5103105e-15 1.1896106e-10 -9.3987122e-10 
    3100 9.7038092e-11            0 1.4271571e-15 8.3176935e-11 1.7361073e-09 
    3200 6.6607165e-11            0 1.0093513e-15 5.7092865e-11 -1.420634e-09 
    3300 4.8552236e-11            0 6.0104789e-17 4.1616263e-11 1.9098591e-10 
    3400 3.541455e-11            0 1.0946051e-17 3.0355339e-11 -1.4530573e-10 
    3500 2.3766613e-11            0 8.1715151e-17 2.0371464e-11 -1.901039e-10 
    3600 1.8207034e-11            0 1.1192976e-17 1.560604e-11 -1.3943526e-10 
    3700 1.3405082e-11            0 6.5294964e-17 1.1490135e-11 3.9772141e-10 
    3800 9.9528968e-12            0 2.915127e-17 8.5310836e-12 2.7095355e-10 
    3900 7.3509751e-12            0 1.4000733e-17 6.3008498e-12 1.3015222e-10 
    4000 5.6724521e-12            0 1.0209013e-16 4.8622039e-12 5.0759756e-10 
Loop time of 5.75463 on 1 procs for 2000 steps with 7 atoms

6.3% CPU use with 1 MPI tasks x no OpenMP threads

Minimization stats:
  Stopping criterion = max iterations
  Energy initial, next-to-last, final = 
    4.77423674567782e-13 9.25298247491992e-17 1.02090134277386e-16
  Force two-norm initial, final = 6.1032128e-05 4.3866398e-06
  Force max component initial, final = 3.0327921e-05 2.1845922e-06
  Final line search alpha, max atom move = 0.0000000 0.0000000
  Iterations, force evaluations = 2000 2000

MPI task timing breakdown:
Section |  min time  |  avg time  |  max time  |%varavg| %total
---------------------------------------------------------------
Pair    | 0          | 0          | 0          |   0.0 |  0.00
Bond    | 0.002812   | 0.002812   | 0.002812   |   0.0 |  0.05
Neigh   | 0          | 0          | 0          |   0.0 |  0.00
Comm    | 0.0011     | 0.0011     | 0.0011     |   0.0 |  0.02
Output  | 0.050394   | 0.050394   | 0.050394   |   0.0 |  0.88
Modify  | 1.8476     | 1.8476     | 1.8476     |   0.0 | 32.11
Other   |            | 3.853      |            |       | 66.95

Nlocal:        7.00000 ave           7 max           7 min
Histogram: 1 0 0 0 0 0 0 0 0 0
Nghost:        0.00000 ave           0 max           0 min
Histogram: 1 0 0 0 0 0 0 0 0 0
Neighs:        0.00000 ave           0 max           0 min
Histogram: 1 0 0 0 0 0 0 0 0 0

Total # of neighbors = 0
Ave neighs/atom = 0.0000000
Ave special neighs/atom = 6.0000000
Neighbor list builds = 0
Dangerous builds = 0
Total wall time: 0:00:18
