LAMMPS (29 Oct 2020)
Processor partition = 73
Reading data file ...
  orthogonal box = (-6.0000000 -6.0000000 -6.0000000) to (6.0000000 6.0000000 6.0000000)
  1 by 1 by 1 MPI processor grid
  reading atoms ...
  7 atoms
  scanning bonds ...
  3 = max bonds/atom
  reading bonds ...
  11 bonds
Finding 1-2 1-3 1-4 neighbors ...
  special bond factors lj:    0.0      0.0      0.0     
  special bond factors coul:  0.0      0.0      0.0     
     4 = max # of 1-2 neighbors
     9 = max # of 1-3 neighbors
    28 = max # of 1-4 neighbors
     6 = max # of special neighbors
  special bonds CPU = 0.000 seconds
  read_data CPU = 0.076 seconds
WARNING: Using 'neigh_modify every 1 delay 0 check yes' setting during minimization (../min.cpp:187)
Setting up quickmin style minimization ...
  Unit style    : lj
  Current step  : 0
Per MPI rank memory allocation (min/avg/max) = 4.840 | 4.840 | 4.840 Mbytes
Step Temp E_pair E_mol TotEng Press 
       0            0            0 0.0044706741 0.0044706741 0.0040705802 
     100 1.742714e-07            0 3.2873625e-07 4.7811174e-07 7.9191837e-08 
     200 5.3320918e-08            0 7.302197e-08 1.1872561e-07 1.1641242e-07 
     300 1.1790255e-09            0 1.5415717e-08 1.6426311e-08 5.335881e-08 
     400 3.1351283e-09            0 3.2283674e-09 5.9156202e-09 2.5760191e-08 
     500 2.072252e-09            0 6.3526658e-10 2.4114826e-09 1.1715134e-08 
     600 2.7762655e-09            0 1.218231e-10 2.5014792e-09 6.2667809e-09 
     700 2.3600417e-09            0 2.3237587e-11 2.0461305e-09 2.5964296e-10 
     800 6.3541185e-11            0 5.5632304e-12 6.0027103e-11 -5.2820252e-09 
     900 2.1644354e-10            0 1.3738697e-12 1.8689691e-10 -3.6369334e-09 
    1000 1.6780452e-10            0 3.4926038e-13 1.4418171e-10 -1.7984412e-09 
    1100 8.1098694e-10            0 9.0192605e-14 6.9522186e-10 2.4509181e-09 
    1200 5.9800068e-10            0 2.5224557e-14 5.1259723e-10 1.9092106e-09 
    1300 5.0133704e-10            0 8.4085302e-15 4.2972587e-10 1.8118285e-09 
    1400 4.6447665e-10            0 3.9682851e-15 3.9812681e-10 2.0526856e-09 
    1500 3.2194759e-10            0 3.3277408e-15 2.7595841e-10 2.3282961e-09 
    1600 1.8762203e-10            0 1.8231909e-15 1.608207e-10 -1.2831305e-09 
    1700 1.5960906e-10            0 7.6275223e-16 1.3680853e-10 1.0551623e-09 
    1800 1.0428849e-10            0 3.6820975e-16 8.9390499e-11 2.6375674e-10 
    1900 4.1879339e-11            0 2.8897884e-16 3.5896865e-11 2.9173194e-10 
    2000 7.1008374e-11            0 9.9668926e-16 6.0865317e-11 1.4455681e-09 
Loop time of 12.3189 on 1 procs for 2000 steps with 7 atoms

3.7% CPU use with 1 MPI tasks x no OpenMP threads

Minimization stats:
  Stopping criterion = max iterations
  Energy initial, next-to-last, final = 
    0.0044706741384214 7.39988049816016e-16 9.96689259014895e-16
  Force two-norm initial, final = 0.65799687 1.0226926e-05
  Force max component initial, final = 0.28649221 6.2143579e-06
  Final line search alpha, max atom move = 0.0000000 0.0000000
  Iterations, force evaluations = 2000 2000

MPI task timing breakdown:
Section |  min time  |  avg time  |  max time  |%varavg| %total
---------------------------------------------------------------
Pair    | 0          | 0          | 0          |   0.0 |  0.00
Bond    | 0.002679   | 0.002679   | 0.002679   |   0.0 |  0.02
Neigh   | 0          | 0          | 0          |   0.0 |  0.00
Comm    | 0.001311   | 0.001311   | 0.001311   |   0.0 |  0.01
Output  | 0.1958     | 0.1958     | 0.1958     |   0.0 |  1.59
Modify  | 3.6116     | 3.6116     | 3.6116     |   0.0 | 29.32
Other   |            | 8.507      |            |       | 69.06

Nlocal:        7.00000 ave           7 max           7 min
Histogram: 1 0 0 0 0 0 0 0 0 0
Nghost:        0.00000 ave           0 max           0 min
Histogram: 1 0 0 0 0 0 0 0 0 0
Neighs:        0.00000 ave           0 max           0 min
Histogram: 1 0 0 0 0 0 0 0 0 0

Total # of neighbors = 0
Ave neighs/atom = 0.0000000
Ave special neighs/atom = 6.0000000
Neighbor list builds = 0
Dangerous builds = 0
WARNING: Using 'neigh_modify every 1 delay 0 check yes' setting during minimization (../min.cpp:187)
Setting up quickmin style minimization ...
  Unit style    : lj
  Current step  : 2000
Per MPI rank memory allocation (min/avg/max) = 4.840 | 4.840 | 4.840 Mbytes
Step Temp E_pair E_mol TotEng Press 
    2000            0            0 9.9668926e-16 9.9668926e-16 1.4426094e-09 
    2100 1.3799792e-10            0 1.8891315e-16 1.1828412e-10 -5.3067846e-10 
    2200 1.1924011e-10            0 2.2389389e-16 1.0220603e-10 -4.2464692e-10 
    2300 6.0983047e-11            0 1.4645031e-16 5.2271329e-11 -3.039218e-10 
    2400 8.5686649e-12            0 7.4462127e-17 7.3446444e-12 -1.8813244e-10 
    2500 3.3866503e-12            0 3.2838751e-17 2.9028759e-12 -1.0885655e-10 
    2600 4.0399712e-12            0 1.355232e-17 3.462846e-12 -7.3697955e-11 
    2700 4.330632e-13            0 5.0614975e-18 3.7120209e-13 -3.733665e-11 
    2800 1.2276537e-13            0 1.8771365e-18 1.0522933e-13 -2.3391654e-11 
    2900 7.8301097e-14            0 6.7422245e-19  6.71159e-14 -1.2441904e-11 
    3000 1.6084392e-14            0 2.3495121e-19 1.3786857e-14 -6.7570285e-12 
    3100 4.3080685e-15            0 7.2117861e-20 3.6927023e-15 -3.0772476e-12 
    3200 1.6468029e-16            0 1.7578382e-20 1.4117211e-16 -7.8569199e-13 
    3300 3.1876066e-16            0 3.1758073e-21 2.732266e-16 6.1619745e-13 
    3400 1.1094928e-15            0 1.5404927e-21 9.5099534e-16 1.4065554e-12 
    3500 1.489382e-15            0 2.8085321e-21 1.276616e-15 1.7988675e-12 
    3600 1.6183492e-15            0 3.9919829e-21 1.3871605e-15 1.935347e-12 
    3700 1.5051371e-15            0 4.4845941e-21 1.290122e-15 1.9229086e-12 
    3800 1.2661816e-15            0 4.385518e-21 1.0853029e-15 1.8227078e-12 
    3900 9.9616424e-16            0 3.9325161e-21  8.53859e-16 1.6768491e-12 
    4000 7.6486944e-16            0 3.3244325e-21 6.556057e-16 1.5099008e-12 
Loop time of 5.75401 on 1 procs for 2000 steps with 7 atoms

5.9% CPU use with 1 MPI tasks x no OpenMP threads

Minimization stats:
  Stopping criterion = max iterations
  Energy initial, next-to-last, final = 
    9.96689259014895e-16 3.32963845860202e-21 3.32443251051251e-21
  Force two-norm initial, final = 5.1262047e-06 4.9320268e-08
  Force max component initial, final = 3.1521746e-06 2.9636398e-08
  Final line search alpha, max atom move = 0.0000000 0.0000000
  Iterations, force evaluations = 2000 2000

MPI task timing breakdown:
Section |  min time  |  avg time  |  max time  |%varavg| %total
---------------------------------------------------------------
Pair    | 0          | 0          | 0          |   0.0 |  0.00
Bond    | 0.002187   | 0.002187   | 0.002187   |   0.0 |  0.04
Neigh   | 0          | 0          | 0          |   0.0 |  0.00
Comm    | 0.001095   | 0.001095   | 0.001095   |   0.0 |  0.02
Output  | 0.049698   | 0.049698   | 0.049698   |   0.0 |  0.86
Modify  | 1.7284     | 1.7284     | 1.7284     |   0.0 | 30.04
Other   |            | 3.973      |            |       | 69.04

Nlocal:        7.00000 ave           7 max           7 min
Histogram: 1 0 0 0 0 0 0 0 0 0
Nghost:        0.00000 ave           0 max           0 min
Histogram: 1 0 0 0 0 0 0 0 0 0
Neighs:        0.00000 ave           0 max           0 min
Histogram: 1 0 0 0 0 0 0 0 0 0

Total # of neighbors = 0
Ave neighs/atom = 0.0000000
Ave special neighs/atom = 6.0000000
Neighbor list builds = 0
Dangerous builds = 0
Total wall time: 0:00:18
