LAMMPS (29 Oct 2020)
Processor partition = 12
Reading data file ...
  orthogonal box = (-6.0000000 -6.0000000 -6.0000000) to (6.0000000 6.0000000 6.0000000)
  1 by 1 by 1 MPI processor grid
  reading atoms ...
  7 atoms
  scanning bonds ...
  3 = max bonds/atom
  reading bonds ...
  11 bonds
Finding 1-2 1-3 1-4 neighbors ...
  special bond factors lj:    0.0      0.0      0.0     
  special bond factors coul:  0.0      0.0      0.0     
     4 = max # of 1-2 neighbors
     9 = max # of 1-3 neighbors
    28 = max # of 1-4 neighbors
     6 = max # of special neighbors
  special bonds CPU = 0.000 seconds
  read_data CPU = 0.013 seconds
WARNING: Using 'neigh_modify every 1 delay 0 check yes' setting during minimization (../min.cpp:187)
Setting up quickmin style minimization ...
  Unit style    : lj
  Current step  : 0
Per MPI rank memory allocation (min/avg/max) = 4.840 | 4.840 | 4.840 Mbytes
Step Temp E_pair E_mol TotEng Press 
       0            0            0  0.017154254  0.017154254 0.0075564045 
     100 3.6060566e-07            0 2.7083685e-07 5.7992742e-07 5.4892472e-07 
     200 1.0724077e-08            0 6.7185843e-09 1.591065e-08 6.5127028e-08 
     300 4.4439717e-10            0 1.0438277e-09 1.4247396e-09 3.0391186e-09 
     400 4.6441671e-09            0 4.4956682e-10 4.4302815e-09 -2.1205825e-09 
     500 7.2085053e-09            0 2.0324046e-10 6.3819593e-09 -1.130908e-09 
     600 1.0875808e-08            0 9.1761601e-11 9.4138829e-09 1.2394929e-09 
     700 1.0742234e-08            0 4.1406239e-11 9.249035e-09 -6.657957e-09 
     800 1.1277601e-09            0 2.0831384e-11 9.8748289e-10 -1.9111191e-08 
     900 1.1288382e-09            0 1.0482812e-11 9.7805841e-10 -1.6938891e-08 
    1000 9.6948252e-10            0 5.1741566e-12 8.3615917e-10 -7.3717643e-09 
    1100 3.3106267e-09            0 2.4900497e-12  2.84017e-09 5.5453853e-09 
    1200 2.4066592e-09            0 1.1712265e-12 2.064022e-09 3.5113603e-09 
    1300 2.0110636e-09            0 5.3845378e-13 1.7243073e-09 3.6979322e-09 
    1400 1.8692279e-09            0 2.4690862e-13 1.6024422e-09 5.6193299e-09 
    1500 1.2925304e-09            0 1.5963104e-13 1.1080428e-09 1.1061987e-08 
    1600 7.4537842e-10            0 5.7079149e-14 6.3895287e-10 -4.9359223e-09 
    1700 6.4312525e-10            0 1.8837578e-14 5.5126905e-10 2.2518248e-09 
    1800 4.1417204e-10            0 7.9929997e-15 3.550126e-10 1.6890479e-09 
    1900  1.68403e-10            0 3.7166662e-15 1.4434914e-10 -4.3988052e-10 
    2000 2.8060904e-10            0 2.1237621e-14 2.4054327e-10 6.5622033e-09 
Loop time of 12.3192 on 1 procs for 2000 steps with 7 atoms

2.8% CPU use with 1 MPI tasks x no OpenMP threads

Minimization stats:
  Stopping criterion = max iterations
  Energy initial, next-to-last, final = 
    0.0171542541787436 1.65959821524714e-14 2.12376213733921e-14
  Force two-norm initial, final = 1.3201796 2.0751862e-05
  Force max component initial, final = 0.64423019 9.9052660e-06
  Final line search alpha, max atom move = 0.0000000 0.0000000
  Iterations, force evaluations = 2000 2000

MPI task timing breakdown:
Section |  min time  |  avg time  |  max time  |%varavg| %total
---------------------------------------------------------------
Pair    | 0          | 0          | 0          |   0.0 |  0.00
Bond    | 0.003302   | 0.003302   | 0.003302   |   0.0 |  0.03
Neigh   | 0          | 0          | 0          |   0.0 |  0.00
Comm    | 0.001482   | 0.001482   | 0.001482   |   0.0 |  0.01
Output  | 0.19396    | 0.19396    | 0.19396    |   0.0 |  1.57
Modify  | 3.591      | 3.591      | 3.591      |   0.0 | 29.15
Other   |            | 8.529      |            |       | 69.24

Nlocal:        7.00000 ave           7 max           7 min
Histogram: 1 0 0 0 0 0 0 0 0 0
Nghost:        0.00000 ave           0 max           0 min
Histogram: 1 0 0 0 0 0 0 0 0 0
Neighs:        0.00000 ave           0 max           0 min
Histogram: 1 0 0 0 0 0 0 0 0 0

Total # of neighbors = 0
Ave neighs/atom = 0.0000000
Ave special neighs/atom = 6.0000000
Neighbor list builds = 0
Dangerous builds = 0
WARNING: Using 'neigh_modify every 1 delay 0 check yes' setting during minimization (../min.cpp:187)
Setting up quickmin style minimization ...
  Unit style    : lj
  Current step  : 2000
Per MPI rank memory allocation (min/avg/max) = 4.840 | 4.840 | 4.840 Mbytes
Step Temp E_pair E_mol TotEng Press 
    2000            0            0 2.1237621e-14 2.1237621e-14 6.5505112e-09 
    2100 1.9253286e-09            0 4.0539671e-15 1.6502857e-09 1.1385058e-09 
    2200 9.5762896e-10            0 8.035433e-15 8.2083286e-10 4.5491824e-09 
    2300 5.277639e-10            0 3.6046096e-15 4.5237266e-10 2.1535794e-09 
    2400 3.7746297e-10            0 2.138418e-16 3.235399e-10 -7.9672532e-10 
    2500 3.3936405e-10            0 2.3411457e-15 2.9088581e-10 2.7636338e-09 
    2600 1.8681572e-10            0 3.9283061e-15 1.6013169e-10 -3.1566352e-09 
    2700 1.6893456e-10            0 1.6383815e-16 1.4480122e-10 7.4132868e-10 
    2800 6.780554e-11            0 4.895056e-17 5.8119083e-11 2.8999924e-10 
    2900 5.1455538e-11            0 8.577844e-17 4.4104833e-11 -2.8709196e-10 
    3000 4.1474775e-11            0 6.9127471e-17 3.5549876e-11 -8.7124624e-11 
    3100 3.4739728e-11            0 8.5002343e-17 2.9776994e-11 3.8333279e-10 
    3200 2.4463596e-11            0 2.5967957e-17 2.0968823e-11 1.2107712e-10 
    3300 1.6119612e-11            0 5.6642648e-17 1.3816867e-11 -2.4913178e-10 
    3400 1.090748e-11            0 3.4513616e-18 9.3492721e-12 1.4489001e-11 
    3500 6.7561357e-12            0 7.4869125e-18 5.7909809e-12 8.4629543e-11 
    3600 4.4208854e-12            0 6.5761092e-17 3.7893961e-12 -2.0470694e-10 
    3700 2.8041705e-12            0 8.147021e-17 2.4036562e-12 -2.6241375e-10 
    3800 1.9242143e-12            0 3.9041669e-17 1.6493656e-12 -2.9667702e-10 
    3900 1.4330164e-12            0 5.123788e-17 1.228351e-12 -3.3095221e-10 
    4000 1.1748085e-12            0 2.0891468e-17 1.0069996e-12 -2.2459767e-10 
Loop time of 5.74793 on 1 procs for 2000 steps with 7 atoms

4.4% CPU use with 1 MPI tasks x no OpenMP threads

Minimization stats:
  Stopping criterion = max iterations
  Energy initial, next-to-last, final = 
    2.12376213733921e-14 2.03131919226838e-17 2.08914683605627e-17
  Force two-norm initial, final = 2.6659768e-05 2.1949769e-06
  Force max component initial, final = 1.2760731e-05 1.0549675e-06
  Final line search alpha, max atom move = 0.0000000 0.0000000
  Iterations, force evaluations = 2000 2000

MPI task timing breakdown:
Section |  min time  |  avg time  |  max time  |%varavg| %total
---------------------------------------------------------------
Pair    | 0          | 0          | 0          |   0.0 |  0.00
Bond    | 0.00275    | 0.00275    | 0.00275    |   0.0 |  0.05
Neigh   | 0          | 0          | 0          |   0.0 |  0.00
Comm    | 0.001237   | 0.001237   | 0.001237   |   0.0 |  0.02
Output  | 0.050627   | 0.050627   | 0.050627   |   0.0 |  0.88
Modify  | 1.7178     | 1.7178     | 1.7178     |   0.0 | 29.89
Other   |            | 3.975      |            |       | 69.16

Nlocal:        7.00000 ave           7 max           7 min
Histogram: 1 0 0 0 0 0 0 0 0 0
Nghost:        0.00000 ave           0 max           0 min
Histogram: 1 0 0 0 0 0 0 0 0 0
Neighs:        0.00000 ave           0 max           0 min
Histogram: 1 0 0 0 0 0 0 0 0 0

Total # of neighbors = 0
Ave neighs/atom = 0.0000000
Ave special neighs/atom = 6.0000000
Neighbor list builds = 0
Dangerous builds = 0
Total wall time: 0:00:18
