LAMMPS (29 Oct 2020)
Processor partition = 75
Reading data file ...
  orthogonal box = (-6.0000000 -6.0000000 -6.0000000) to (6.0000000 6.0000000 6.0000000)
  1 by 1 by 1 MPI processor grid
  reading atoms ...
  7 atoms
  scanning bonds ...
  3 = max bonds/atom
  reading bonds ...
  11 bonds
Finding 1-2 1-3 1-4 neighbors ...
  special bond factors lj:    0.0      0.0      0.0     
  special bond factors coul:  0.0      0.0      0.0     
     4 = max # of 1-2 neighbors
     9 = max # of 1-3 neighbors
    28 = max # of 1-4 neighbors
     6 = max # of special neighbors
  special bonds CPU = 0.000 seconds
  read_data CPU = 0.069 seconds
WARNING: Using 'neigh_modify every 1 delay 0 check yes' setting during minimization (../min.cpp:187)
Setting up quickmin style minimization ...
  Unit style    : lj
  Current step  : 0
Per MPI rank memory allocation (min/avg/max) = 4.840 | 4.840 | 4.840 Mbytes
Step Temp E_pair E_mol TotEng Press 
       0            0            0 0.0019873516 0.0019873516 0.0027523342 
     100 3.9886044e-06            0 1.9335039e-07 3.6121541e-06 5.5641768e-07 
     200 1.6766658e-07            0 3.3770338e-08 1.7748455e-07 -5.02154e-08 
     300 7.0287333e-10            0 6.8084979e-09 7.4109607e-09 3.235936e-08 
     400 1.3063085e-09            0 1.4017048e-09 2.5213978e-09 1.5796485e-08 
     500 1.0257164e-09            0 2.7344408e-10 1.1526296e-09 8.0163151e-09 
     600 1.2354924e-09            0 5.2155425e-11 1.1111489e-09 4.0346972e-09 
     700 1.6009804e-09            0 9.9065202e-12 1.3821755e-09 2.2961768e-09 
     800 6.2770671e-10            0 2.3566862e-12 5.4039101e-10 1.2140231e-09 
     900 2.054523e-10            0 5.796725e-13 1.7668164e-10 -1.2398378e-09 
    1000 1.8910512e-10            0 1.4640633e-13 1.6223651e-10 -2.7161925e-11 
    1100 3.7428167e-10            0 3.7889127e-14 3.2085075e-10 1.6011215e-09 
    1200 2.6591443e-10            0 1.0512867e-14 2.2793717e-10 1.2068711e-09 
    1300 2.2180904e-10            0 3.4672311e-15 1.901255e-10 1.1397996e-09 
    1400 2.0646234e-10            0 1.616702e-15 1.7696934e-10 1.2963045e-09 
    1500 1.4501267e-10            0 1.3589772e-15 1.2429794e-10 1.4891972e-09 
    1600 8.3244942e-11            0 7.3275919e-16 7.135354e-11 -8.1373715e-10 
    1700 7.0694584e-11            0 3.0611843e-16 6.0595664e-11 6.6500444e-10 
    1800 4.6554905e-11            0 1.483043e-16 3.9904353e-11 1.7061419e-10 
    1900 1.8360939e-11            0 1.1603769e-16 1.5738064e-11 1.8155376e-10 
    2000 3.1970206e-11            0 4.0370823e-16 2.7403437e-11 9.214142e-10 
Loop time of 12.3188 on 1 procs for 2000 steps with 7 atoms

3.8% CPU use with 1 MPI tasks x no OpenMP threads

Minimization stats:
  Stopping criterion = max iterations
  Energy initial, next-to-last, final = 
    0.00198735155724748 2.9920260033284e-16 4.03708233435114e-16
  Force two-norm initial, final = 0.43746322 6.7510726e-06
  Force max component initial, final = 0.18679934 4.0996130e-06
  Final line search alpha, max atom move = 0.0000000 0.0000000
  Iterations, force evaluations = 2000 2000

MPI task timing breakdown:
Section |  min time  |  avg time  |  max time  |%varavg| %total
---------------------------------------------------------------
Pair    | 0          | 0          | 0          |   0.0 |  0.00
Bond    | 0.003084   | 0.003084   | 0.003084   |   0.0 |  0.03
Neigh   | 0          | 0          | 0          |   0.0 |  0.00
Comm    | 0.001548   | 0.001548   | 0.001548   |   0.0 |  0.01
Output  | 0.20458    | 0.20458    | 0.20458    |   0.0 |  1.66
Modify  | 3.5869     | 3.5869     | 3.5869     |   0.0 | 29.12
Other   |            | 8.523      |            |       | 69.18

Nlocal:        7.00000 ave           7 max           7 min
Histogram: 1 0 0 0 0 0 0 0 0 0
Nghost:        0.00000 ave           0 max           0 min
Histogram: 1 0 0 0 0 0 0 0 0 0
Neighs:        0.00000 ave           0 max           0 min
Histogram: 1 0 0 0 0 0 0 0 0 0

Total # of neighbors = 0
Ave neighs/atom = 0.0000000
Ave special neighs/atom = 6.0000000
Neighbor list builds = 0
Dangerous builds = 0
WARNING: Using 'neigh_modify every 1 delay 0 check yes' setting during minimization (../min.cpp:187)
Setting up quickmin style minimization ...
  Unit style    : lj
  Current step  : 2000
Per MPI rank memory allocation (min/avg/max) = 4.840 | 4.840 | 4.840 Mbytes
Step Temp E_pair E_mol TotEng Press 
    2000            0            0 4.0370823e-16 4.0370823e-16 9.2008211e-10 
    2100 6.1310064e-11            0 7.5777123e-17 5.2551559e-11 -3.3699563e-10 
    2200 5.2982962e-11            0 8.9837581e-17 4.5414057e-11 -2.6977418e-10 
    2300 2.7099905e-11            0 5.8775216e-17 2.3228548e-11 -1.929513e-10 
    2400 3.8081715e-12            0 2.9889049e-17 3.2641769e-12 -1.1926611e-10 
    2500 1.5046419e-12            0 1.3181394e-17 1.2897062e-12 -6.8974066e-11 
    2600 1.7949535e-12            0 5.4390114e-18 1.538537e-12 -4.6656406e-11 
    2700 1.9225889e-13            0 2.0314872e-18 1.6479537e-13 -2.361212e-11 
    2800 5.4490567e-14            0 7.5339908e-19 4.6706954e-14 -1.4792772e-11 
    2900 3.4734894e-14            0 2.7052276e-19 2.9773037e-14 -7.8317784e-12 
    3000 7.123061e-15            0 9.4259564e-20 6.1055751e-15 -4.2409801e-12 
    3100 1.9058498e-15            0 2.8928751e-20 1.6336145e-15 -1.9172983e-12 
    3200 7.2182726e-17            0 7.0528443e-21 6.1877961e-17 -4.7835269e-13 
    3300 1.4234863e-16            0 1.2760574e-21 1.2201439e-16 4.0008297e-13 
    3400 4.935223e-16            0 6.1948008e-22 4.2301973e-16 8.9463838e-13 
    3500 6.6193982e-16            0 1.1276372e-21 5.6737812e-16 1.1401539e-12 
    3600 7.1902254e-16            0 1.6021664e-21 6.1630664e-16 1.2253031e-12 
    3700 6.6863251e-16            0 1.7997193e-21 5.7311538e-16 1.216947e-12 
    3800 5.6244732e-16            0 1.7599601e-21 4.8209946e-16 1.1534169e-12 
    3900 4.424937e-16            0 1.5782035e-21 3.7928189e-16 1.0611463e-12 
    4000 3.3975238e-16            0 1.3342012e-21 2.9121766e-16 9.5554975e-13 
Loop time of 5.75778 on 1 procs for 2000 steps with 7 atoms

6.0% CPU use with 1 MPI tasks x no OpenMP threads

Minimization stats:
  Stopping criterion = max iterations
  Energy initial, next-to-last, final = 
    4.03708233435114e-16 1.33712464265408e-21 1.33420115510873e-21
  Force two-norm initial, final = 3.3503816e-06 3.2885472e-08
  Force max component initial, final = 2.0569721e-06 1.9767526e-08
  Final line search alpha, max atom move = 0.0000000 0.0000000
  Iterations, force evaluations = 2000 2000

MPI task timing breakdown:
Section |  min time  |  avg time  |  max time  |%varavg| %total
---------------------------------------------------------------
Pair    | 0          | 0          | 0          |   0.0 |  0.00
Bond    | 0.00265    | 0.00265    | 0.00265    |   0.0 |  0.05
Neigh   | 0          | 0          | 0          |   0.0 |  0.00
Comm    | 0.001332   | 0.001332   | 0.001332   |   0.0 |  0.02
Output  | 0.04946    | 0.04946    | 0.04946    |   0.0 |  0.86
Modify  | 1.722      | 1.722      | 1.722      |   0.0 | 29.91
Other   |            | 3.982      |            |       | 69.17

Nlocal:        7.00000 ave           7 max           7 min
Histogram: 1 0 0 0 0 0 0 0 0 0
Nghost:        0.00000 ave           0 max           0 min
Histogram: 1 0 0 0 0 0 0 0 0 0
Neighs:        0.00000 ave           0 max           0 min
Histogram: 1 0 0 0 0 0 0 0 0 0

Total # of neighbors = 0
Ave neighs/atom = 0.0000000
Ave special neighs/atom = 6.0000000
Neighbor list builds = 0
Dangerous builds = 0
Total wall time: 0:00:18
