LAMMPS (29 Oct 2020)
Processor partition = 97
Reading data file ...
  orthogonal box = (-6.0000000 -6.0000000 -6.0000000) to (6.0000000 6.0000000 6.0000000)
  1 by 1 by 1 MPI processor grid
  reading atoms ...
  7 atoms
  scanning bonds ...
  3 = max bonds/atom
  reading bonds ...
  11 bonds
Finding 1-2 1-3 1-4 neighbors ...
  special bond factors lj:    0.0      0.0      0.0     
  special bond factors coul:  0.0      0.0      0.0     
     4 = max # of 1-2 neighbors
     9 = max # of 1-3 neighbors
    28 = max # of 1-4 neighbors
     6 = max # of special neighbors
  special bonds CPU = 0.000 seconds
  read_data CPU = 0.030 seconds
WARNING: Using 'neigh_modify every 1 delay 0 check yes' setting during minimization (../min.cpp:187)
Setting up quickmin style minimization ...
  Unit style    : lj
  Current step  : 0
Per MPI rank memory allocation (min/avg/max) = 4.840 | 4.840 | 4.840 Mbytes
Step Temp E_pair E_mol TotEng Press 
       0            0            0 0.0017320186 0.0017320186 0.0023353737 
     100 0.0001905208            0 0.00026144822 0.00042475176 6.1928029e-05 
     200 1.3629913e-06            0 2.5576153e-06 3.7258935e-06 7.3521361e-06 
     300 2.6869422e-06            0 1.1548163e-06 3.4579096e-06 4.3091681e-06 
     400 3.7326597e-06            0   9.6535e-07 4.1647726e-06 3.643876e-06 
     500 1.303057e-05            0 9.9022828e-07 1.2159289e-05 -7.0906602e-06 
     600 6.6489871e-06            0 8.0279392e-07 6.5019257e-06 2.613679e-06 
     700 1.1355091e-05            0 4.2865892e-07 1.0161594e-05 8.0888014e-06 
     800 1.3272063e-05            0 2.9514892e-07 1.1671203e-05 -5.5751405e-06 
     900 2.8949492e-06            0 1.6344697e-07 2.644832e-06 1.4169391e-06 
    1000 4.1319987e-07            0  1.63399e-07 5.1757031e-07 -8.1400476e-07 
    1100 9.7322996e-07            0  1.19903e-07 9.5410011e-07 -1.8043124e-06 
    1200 1.3240575e-07            0 1.0089027e-07 2.1438091e-07 -8.8586509e-07 
    1300 2.6966681e-06            0 7.1352856e-08 2.3827827e-06 -3.522451e-06 
    1400 1.3271292e-08            0 5.6056166e-08 6.7431559e-08 -4.0583158e-08 
    1500 3.4874422e-05            0 1.5298966e-07 3.0045352e-05 -9.4185131e-06 
    1600 1.3006298e-07            0 4.2263472e-08 1.5374603e-07 4.729667e-07 
    1700 8.010078e-09            0 5.3423887e-08 6.0289668e-08 1.0227066e-07 
    1800 1.9061464e-09            0 5.7184506e-08 5.8818346e-08 -1.4452489e-08 
    1900 1.5665296e-07            0 5.6905743e-08 1.9117971e-07 -5.183767e-07 
    2000 1.4810673e-05            0 1.6422428e-07 1.2859087e-05 1.2125845e-05 
Loop time of 9.32245 on 1 procs for 2000 steps with 7 atoms

4.6% CPU use with 1 MPI tasks x no OpenMP threads

Minimization stats:
  Stopping criterion = max iterations
  Energy initial, next-to-last, final = 
    0.00173201864205801 1.38936342387794e-07 1.6422427776032e-07
  Force two-norm initial, final = 0.28214658 0.017947168
  Force max component initial, final = 0.14459968 0.013775181
  Final line search alpha, max atom move = 0.0000000 0.0000000
  Iterations, force evaluations = 2000 2000

MPI task timing breakdown:
Section |  min time  |  avg time  |  max time  |%varavg| %total
---------------------------------------------------------------
Pair    | 0          | 0          | 0          |   0.0 |  0.00
Bond    | 0.00273    | 0.00273    | 0.00273    |   0.0 |  0.03
Neigh   | 1.6e-05    | 1.6e-05    | 1.6e-05    |   0.0 |  0.00
Comm    | 0.001433   | 0.001433   | 0.001433   |   0.0 |  0.02
Output  | 0.29       | 0.29       | 0.29       |   0.0 |  3.11
Modify  | 2.9259     | 2.9259     | 2.9259     |   0.0 | 31.39
Other   |            | 6.102      |            |       | 65.46

Nlocal:        7.00000 ave           7 max           7 min
Histogram: 1 0 0 0 0 0 0 0 0 0
Nghost:        0.00000 ave           0 max           0 min
Histogram: 1 0 0 0 0 0 0 0 0 0
Neighs:        0.00000 ave           0 max           0 min
Histogram: 1 0 0 0 0 0 0 0 0 0

Total # of neighbors = 0
Ave neighs/atom = 0.0000000
Ave special neighs/atom = 6.0000000
Neighbor list builds = 7
Dangerous builds = 0
WARNING: Using 'neigh_modify every 1 delay 0 check yes' setting during minimization (../min.cpp:187)
Setting up quickmin style minimization ...
  Unit style    : lj
  Current step  : 2000
Per MPI rank memory allocation (min/avg/max) = 4.840 | 4.840 | 4.840 Mbytes
Step Temp E_pair E_mol TotEng Press 
    2000            0            0 1.6422428e-07 1.6422428e-07 1.1508734e-05 
    2100 3.5850551e-05            0 2.0313494e-07 3.0932179e-05 1.2142239e-05 
    2200 4.3176441e-06            0 7.5531585e-08 3.7763694e-06 -3.0304825e-06 
    2300 2.3800545e-09            0 5.9722837e-08 6.1762883e-08 -1.4196619e-07 
    2400 1.7489893e-06            0 4.2801159e-08 1.5419349e-06 2.8715992e-06 
    2500 1.1697201e-08            0 4.4516468e-08 5.4542641e-08 2.0830815e-07 
    2600 9.0739811e-08            0 4.4197414e-08 1.2197439e-07 4.3364181e-07 
    2700 2.2795174e-07            0 4.5206724e-08 2.4059393e-07 7.8877986e-07 
    2800 3.940908e-08            0 4.6134083e-08 7.9913294e-08 2.4829026e-07 
    2900 3.2903245e-08            0 4.4515382e-08 7.2718163e-08 -2.4045614e-07 
    3000 1.1192668e-10            0 4.4005076e-08 4.4101013e-08 -2.5842928e-08 
    3100 1.1985149e-08            0 4.3815236e-08 5.4088221e-08 -1.930811e-07 
    3200 5.6510017e-10            0 4.352951e-08 4.4013881e-08 -1.8575031e-08 
    3300 1.8088284e-10            0 4.3299803e-08 4.3454846e-08 -1.8949933e-08 
    3400 3.9937264e-10            0 4.3069119e-08 4.3411439e-08 -1.8070018e-08 
    3500 3.6745971e-10            0 4.2848097e-08 4.3163062e-08 -1.8298803e-08 
    3600 2.616333e-10            0 4.2623443e-08  4.28477e-08 -1.8265532e-08 
    3700 1.2746433e-10            0 4.2401453e-08 4.2510709e-08 -1.8225032e-08 
    3800 1.8113888e-10            0 4.2179022e-08 4.2334284e-08 -1.8161633e-08 
    3900 3.7921241e-10            0 4.1956184e-08 4.2281223e-08 -1.8095118e-08 
    4000 1.2174667e-10            0 4.1745984e-08 4.1850339e-08 -1.7989687e-08 
Loop time of 7.65266 on 1 procs for 2000 steps with 7 atoms

5.6% CPU use with 1 MPI tasks x no OpenMP threads

Minimization stats:
  Stopping criterion = max iterations
  Energy initial, next-to-last, final = 
    1.6422427776032e-07 4.17478433125788e-08 4.17459844040435e-08
  Force two-norm initial, final = 0.018710236 1.8225427e-05
  Force max component initial, final = 0.014371989 1.3323850e-05
  Final line search alpha, max atom move = 0.0000000 0.0000000
  Iterations, force evaluations = 2000 2000

MPI task timing breakdown:
Section |  min time  |  avg time  |  max time  |%varavg| %total
---------------------------------------------------------------
Pair    | 0          | 0          | 0          |   0.0 |  0.00
Bond    | 0.002844   | 0.002844   | 0.002844   |   0.0 |  0.04
Neigh   | 0          | 0          | 0          |   0.0 |  0.00
Comm    | 0.001495   | 0.001495   | 0.001495   |   0.0 |  0.02
Output  | 0.037413   | 0.037413   | 0.037413   |   0.0 |  0.49
Modify  | 2.4698     | 2.4698     | 2.4698     |   0.0 | 32.27
Other   |            | 5.141      |            |       | 67.18

Nlocal:        7.00000 ave           7 max           7 min
Histogram: 1 0 0 0 0 0 0 0 0 0
Nghost:        0.00000 ave           0 max           0 min
Histogram: 1 0 0 0 0 0 0 0 0 0
Neighs:        0.00000 ave           0 max           0 min
Histogram: 1 0 0 0 0 0 0 0 0 0

Total # of neighbors = 0
Ave neighs/atom = 0.0000000
Ave special neighs/atom = 6.0000000
Neighbor list builds = 0
Dangerous builds = 0
Total wall time: 0:00:17
