LAMMPS (29 Oct 2020)
Processor partition = 82
Reading data file ...
  orthogonal box = (-6.0000000 -6.0000000 -6.0000000) to (6.0000000 6.0000000 6.0000000)
  1 by 1 by 1 MPI processor grid
  reading atoms ...
  7 atoms
  scanning bonds ...
  3 = max bonds/atom
  reading bonds ...
  11 bonds
Finding 1-2 1-3 1-4 neighbors ...
  special bond factors lj:    0.0      0.0      0.0     
  special bond factors coul:  0.0      0.0      0.0     
     4 = max # of 1-2 neighbors
     9 = max # of 1-3 neighbors
    28 = max # of 1-4 neighbors
     6 = max # of special neighbors
  special bonds CPU = 0.000 seconds
  read_data CPU = 0.032 seconds
WARNING: Using 'neigh_modify every 1 delay 0 check yes' setting during minimization (../min.cpp:187)
Setting up quickmin style minimization ...
  Unit style    : lj
  Current step  : 0
Per MPI rank memory allocation (min/avg/max) = 4.840 | 4.840 | 4.840 Mbytes
Step Temp E_pair E_mol TotEng Press 
       0            0            0   0.10923255   0.10923255  0.013846592 
     100  0.010075735            0 5.5084031e-05 0.0086914282 0.0004613067 
     200 0.0013021481            0 2.784509e-06 0.0011189115 3.6127165e-05 
     300 0.00010222799            0 5.7968737e-08 8.7681962e-05 6.5385657e-06 
     400 0.00023494118            0 8.7724338e-07 0.00020225539 1.6367861e-05 
     500  0.010742528            0 1.3710208e-05 0.0092215913 0.00036313667 
     600  0.015776817            0 1.0368115e-05  0.013533354 0.00049791655 
     700 0.0022162234            0 4.6646794e-06 0.0019042847 2.4612829e-05 
     800 0.0017365426            0 4.2863505e-06 0.0014927515 0.00019095806 
     900 0.0048248434            0 4.1115478e-06 0.0041396916 0.00021200166 
    1000 0.00029797186            0 1.7972459e-06 0.0002572017 3.3322594e-05 
    1100 0.00017191225            0 6.4804649e-07 0.0001480014 1.2247718e-05 
    1200 6.0257281e-06            0 1.1861581e-07 5.2835256e-06 -4.1148956e-06 
    1300 2.698467e-05            0 2.9654595e-07 2.3426263e-05 -5.4268098e-06 
    1400 4.9350845e-06            0 1.9949255e-08 4.2500217e-06 -3.5053422e-07 
    1500 0.00015916601            0 9.7590422e-07 0.00013740391 -3.3669424e-06 
    1600 0.00011057422            0 8.5797072e-09 9.4786485e-05 7.744848e-06 
    1700 0.0001632653            0 3.6255614e-08 0.00013997794 1.3511497e-05 
    1800 8.0263555e-05            0 7.7984568e-09 6.8805131e-05 6.9666314e-06 
    1900 2.5044044e-06            0 4.3297341e-10 2.1470653e-06 -5.233628e-07 
    2000   0.10779149            0 4.4063477e-05  0.092436768 0.0047171279 
Loop time of 9.32103 on 1 procs for 2000 steps with 7 atoms

4.6% CPU use with 1 MPI tasks x no OpenMP threads

Minimization stats:
  Stopping criterion = max iterations
  Energy initial, next-to-last, final = 
     0.109232550811786 6.47753931118732e-05 4.40634767205802e-05
  Force two-norm initial, final = 2.4443223 1.2265242
  Force max component initial, final = 1.2102968 0.60307333
  Final line search alpha, max atom move = 0.0000000 0.0000000
  Iterations, force evaluations = 2000 2000

MPI task timing breakdown:
Section |  min time  |  avg time  |  max time  |%varavg| %total
---------------------------------------------------------------
Pair    | 0          | 0          | 0          |   0.0 |  0.00
Bond    | 0.003013   | 0.003013   | 0.003013   |   0.0 |  0.03
Neigh   | 0.000217   | 0.000217   | 0.000217   |   0.0 |  0.00
Comm    | 0.001612   | 0.001612   | 0.001612   |   0.0 |  0.02
Output  | 0.28757    | 0.28757    | 0.28757    |   0.0 |  3.09
Modify  | 3.009      | 3.009      | 3.009      |   0.0 | 32.28
Other   |            | 6.02       |            |       | 64.58

Nlocal:        7.00000 ave           7 max           7 min
Histogram: 1 0 0 0 0 0 0 0 0 0
Nghost:        0.00000 ave           0 max           0 min
Histogram: 1 0 0 0 0 0 0 0 0 0
Neighs:        0.00000 ave           0 max           0 min
Histogram: 1 0 0 0 0 0 0 0 0 0

Total # of neighbors = 0
Ave neighs/atom = 0.0000000
Ave special neighs/atom = 6.0000000
Neighbor list builds = 90
Dangerous builds = 0
WARNING: Using 'neigh_modify every 1 delay 0 check yes' setting during minimization (../min.cpp:187)
Setting up quickmin style minimization ...
  Unit style    : lj
  Current step  : 2000
Per MPI rank memory allocation (min/avg/max) = 4.840 | 4.840 | 4.840 Mbytes
Step Temp E_pair E_mol TotEng Press 
    2000            0            0 4.4063477e-05 4.4063477e-05 0.00022581589 
    2100 0.00031031665            0 1.3224901e-07 0.00026611795 3.0468561e-06 
    2200 0.0034127015            0 1.6701964e-06 0.0029268429 0.00014699149 
    2300 2.4290666e-07            0 8.7264836e-07 1.0808541e-06 -7.9513942e-07 
    2400 0.00014084288            0 4.0821193e-08 0.00012076329 1.369678e-05 
    2500 0.0077928671            0 1.5157242e-05 0.0066947576 0.00026957168 
    2600 7.8363718e-05            0 3.9884633e-06 7.1157364e-05 -1.3144768e-06 
    2700 2.9175253e-05            0 3.3199884e-06 2.8327348e-05 -1.9321201e-06 
    2800 8.1549392e-05            0 2.2299034e-06 7.2129382e-05 2.7258341e-06 
    2900 6.4647254e-05            0 2.0736793e-06 5.7485612e-05 2.3550864e-06 
    3000 2.5412222e-08            0 2.0725498e-06 2.0943317e-06 -2.827771e-07 
    3100 1.0008838e-06            0 2.0556045e-06 2.9135048e-06 -8.2906497e-09 
    3200 3.1990801e-08            0 2.0524219e-06 2.0798426e-06 -1.8975288e-08 
    3300 2.9072844e-08            0 2.0504314e-06 2.075351e-06 -4.1892072e-09 
    3400  4.93803e-08            0 2.0484435e-06 2.0907694e-06 -1.0492675e-09 
    3500 4.0944406e-08            0 2.0464984e-06 2.0815936e-06 -4.8091366e-10 
    3600 2.7032034e-08            0 2.0444842e-06 2.0676545e-06 -8.2511822e-10 
    3700 1.2274544e-08            0 2.0424533e-06 2.0529743e-06 -1.3698532e-09 
    3800 1.627547e-08            0 2.0403745e-06 2.0543249e-06 -1.1782045e-09 
    3900  3.17498e-08            0 2.0382444e-06 2.0654585e-06 -5.2324589e-10 
    4000 9.4969649e-09            0 2.0361878e-06 2.0443281e-06 -1.4593475e-09 
Loop time of 7.64749 on 1 procs for 2000 steps with 7 atoms

5.6% CPU use with 1 MPI tasks x no OpenMP threads

Minimization stats:
  Stopping criterion = max iterations
  Energy initial, next-to-last, final = 
    4.40634767205802e-05 2.03620620380121e-06 2.03618780171464e-06
  Force two-norm initial, final = 1.2199650 0.00016091705
  Force max component initial, final = 0.5998907 6.6973446e-05
  Final line search alpha, max atom move = 0.0000000 0.0000000
  Iterations, force evaluations = 2000 2000

MPI task timing breakdown:
Section |  min time  |  avg time  |  max time  |%varavg| %total
---------------------------------------------------------------
Pair    | 0          | 0          | 0          |   0.0 |  0.00
Bond    | 0.003159   | 0.003159   | 0.003159   |   0.0 |  0.04
Neigh   | 5.3e-05    | 5.3e-05    | 5.3e-05    |   0.0 |  0.00
Comm    | 0.001749   | 0.001749   | 0.001749   |   0.0 |  0.02
Output  | 0.038416   | 0.038416   | 0.038416   |   0.0 |  0.50
Modify  | 2.5563     | 2.5563     | 2.5563     |   0.0 | 33.43
Other   |            | 5.048      |            |       | 66.01

Nlocal:        7.00000 ave           7 max           7 min
Histogram: 1 0 0 0 0 0 0 0 0 0
Nghost:        0.00000 ave           0 max           0 min
Histogram: 1 0 0 0 0 0 0 0 0 0
Neighs:        0.00000 ave           0 max           0 min
Histogram: 1 0 0 0 0 0 0 0 0 0

Total # of neighbors = 0
Ave neighs/atom = 0.0000000
Ave special neighs/atom = 6.0000000
Neighbor list builds = 27
Dangerous builds = 0
Total wall time: 0:00:17
