LAMMPS (29 Oct 2020)
Processor partition = 13
Reading data file ...
  orthogonal box = (-6.0000000 -6.0000000 -6.0000000) to (6.0000000 6.0000000 6.0000000)
  1 by 1 by 1 MPI processor grid
  reading atoms ...
  7 atoms
  scanning bonds ...
  3 = max bonds/atom
  reading bonds ...
  11 bonds
Finding 1-2 1-3 1-4 neighbors ...
  special bond factors lj:    0.0      0.0      0.0     
  special bond factors coul:  0.0      0.0      0.0     
     4 = max # of 1-2 neighbors
     9 = max # of 1-3 neighbors
    28 = max # of 1-4 neighbors
     6 = max # of special neighbors
  special bonds CPU = 0.000 seconds
  read_data CPU = 0.013 seconds
WARNING: Using 'neigh_modify every 1 delay 0 check yes' setting during minimization (../min.cpp:187)
Setting up quickmin style minimization ...
  Unit style    : lj
  Current step  : 0
Per MPI rank memory allocation (min/avg/max) = 4.840 | 4.840 | 4.840 Mbytes
Step Temp E_pair E_mol TotEng Press 
       0            0            0  0.019685971  0.019685971  0.008029913 
     100 4.2477747e-07            0 3.2758503e-07 6.9168001e-07 5.8972263e-07 
     200 1.3733115e-08            0 1.0136078e-08 2.1907319e-08 6.7776366e-08 
     300 5.2182343e-10            0 2.1359537e-09 2.5832309e-09 3.5209375e-10 
     400 5.5966254e-09            0 9.4359836e-10 5.7407058e-09 -4.2432091e-09 
     500 8.4953947e-09            0 4.2589497e-10 7.7076619e-09 -2.6097609e-09 
     600 1.2787757e-08            0 1.9158767e-10 1.1152522e-08 5.0598606e-10 
     700 1.2608748e-08            0 8.6095554e-11 1.0893594e-08 -7.9829817e-09 
     800 1.6313343e-09            0 4.3026079e-11 1.4413126e-09 -1.9784681e-08 
     900 1.5608424e-09            0 2.1561495e-11 1.3594264e-09 -1.7600683e-08 
    1000 1.6507172e-09            0 1.0667925e-11 1.4255684e-09 -5.1646363e-09 
    1100 4.0707792e-09            0 5.1627282e-12 3.494402e-09 6.4632211e-09 
    1200 2.9047451e-09            0 2.4396781e-12 2.4922212e-09 4.0047909e-09 
    1300 2.3913753e-09            0 1.1287417e-12 2.050879e-09 4.1080588e-09 
    1400 2.1997609e-09            0 5.1704998e-13 1.8860264e-09 6.1940357e-09 
    1500 1.4919854e-09            0 2.9103129e-13 1.2791356e-09 1.2104581e-08 
    1600 8.7426622e-10            0 1.1268995e-13 7.4948373e-10 -5.5100347e-09 
    1700 7.5943139e-10            0 4.1649662e-14 6.5098284e-10 2.4924497e-09 
    1800  4.83124e-10            0 1.7542813e-14 4.1412383e-10 1.830396e-09 
    1900 2.0083087e-10            0 7.6773747e-15 1.7214842e-10 -4.8096893e-10 
    2000 3.2564446e-10            0 2.7155298e-14 2.7915097e-10 7.2425345e-09 
Loop time of 12.3166 on 1 procs for 2000 steps with 7 atoms

4.0% CPU use with 1 MPI tasks x no OpenMP threads

Minimization stats:
  Stopping criterion = max iterations
  Energy initial, next-to-last, final = 
    0.0196859707952382 2.1528637678751e-14 2.71552982323048e-14
  Force two-norm initial, final = 1.4174745 2.2680660e-05
  Force max component initial, final = 0.69636197 1.0890222e-05
  Final line search alpha, max atom move = 0.0000000 0.0000000
  Iterations, force evaluations = 2000 2000

MPI task timing breakdown:
Section |  min time  |  avg time  |  max time  |%varavg| %total
---------------------------------------------------------------
Pair    | 0          | 0          | 0          |   0.0 |  0.00
Bond    | 0.003096   | 0.003096   | 0.003096   |   0.0 |  0.03
Neigh   | 0          | 0          | 0          |   0.0 |  0.00
Comm    | 0.001538   | 0.001538   | 0.001538   |   0.0 |  0.01
Output  | 0.19123    | 0.19123    | 0.19123    |   0.0 |  1.55
Modify  | 3.8718     | 3.8718     | 3.8718     |   0.0 | 31.44
Other   |            | 8.249      |            |       | 66.97

Nlocal:        7.00000 ave           7 max           7 min
Histogram: 1 0 0 0 0 0 0 0 0 0
Nghost:        0.00000 ave           0 max           0 min
Histogram: 1 0 0 0 0 0 0 0 0 0
Neighs:        0.00000 ave           0 max           0 min
Histogram: 1 0 0 0 0 0 0 0 0 0

Total # of neighbors = 0
Ave neighs/atom = 0.0000000
Ave special neighs/atom = 6.0000000
Neighbor list builds = 0
Dangerous builds = 0
WARNING: Using 'neigh_modify every 1 delay 0 check yes' setting during minimization (../min.cpp:187)
Setting up quickmin style minimization ...
  Unit style    : lj
  Current step  : 2000
Per MPI rank memory allocation (min/avg/max) = 4.840 | 4.840 | 4.840 Mbytes
Step Temp E_pair E_mol TotEng Press 
    2000            0            0 2.7155298e-14 2.7155298e-14 7.228966e-09 
    2100 2.3125833e-09            0 3.0570139e-14 1.9822448e-09 -5.8154206e-09 
    2200 1.1223773e-09            0 2.3310437e-15 9.6203999e-10 2.3345796e-09 
    2300 6.0266405e-10            0 1.1283913e-15 5.1657031e-10 1.8333008e-10 
    2400 4.3703219e-10            0 4.2064794e-16 3.7459944e-10 1.060049e-09 
    2500 3.9787769e-10            0 1.7057762e-15 3.4103972e-10 -1.9685266e-09 
    2600 2.1715387e-10            0 4.7981284e-16 1.8613237e-10 9.9886486e-10 
    2700 1.9746626e-10            0 2.9356612e-15 1.6925973e-10 2.9113596e-09 
    2800 7.7994496e-11            0 3.3888525e-17 6.6852459e-11 4.4455066e-11 
    2900 5.7975173e-11            0 1.5060085e-16 4.9693156e-11 6.1365224e-10 
    3000 4.6173773e-11            0 2.3064942e-16 3.957775e-11 -8.7194387e-10 
    3100 3.9591165e-11            0 1.6876784e-17 3.3935301e-11 -5.0562949e-11 
    3200 2.7906418e-11            0 8.5918846e-18 2.3919796e-11 8.8822689e-11 
    3300 1.841954e-11            0 5.4727584e-17 1.5788231e-11 3.4359927e-11 
    3400 1.2502545e-11            0 1.3955902e-17 1.0716481e-11 1.0457601e-10 
    3500 7.9376897e-12            0 3.794895e-17 6.803772e-12 -2.2590642e-10 
    3600 5.3330559e-12            0 1.4033872e-16 4.5713311e-12 -5.5635023e-10 
    3700  3.49623e-12            0 1.4101283e-16 2.9969096e-12 -5.5759309e-10 
    3800 2.4675023e-12            0 1.8866269e-18 2.1150038e-12 -1.6902011e-11 
    3900 1.9420286e-12            0 9.8209781e-18 1.6646057e-12 2.9505606e-11 
    4000 1.5886825e-12            0 2.1036838e-18 1.3617299e-12 -5.3713611e-11 
Loop time of 5.74451 on 1 procs for 2000 steps with 7 atoms

6.4% CPU use with 1 MPI tasks x no OpenMP threads

Minimization stats:
  Stopping criterion = max iterations
  Energy initial, next-to-last, final = 
    2.71552982323048e-14 2.87545894590495e-18 2.10368378454811e-18
  Force two-norm initial, final = 2.9080467e-05 2.2444773e-06
  Force max component initial, final = 1.3999675e-05 1.0831312e-06
  Final line search alpha, max atom move = 0.0000000 0.0000000
  Iterations, force evaluations = 2000 2000

MPI task timing breakdown:
Section |  min time  |  avg time  |  max time  |%varavg| %total
---------------------------------------------------------------
Pair    | 0          | 0          | 0          |   0.0 |  0.00
Bond    | 0.002621   | 0.002621   | 0.002621   |   0.0 |  0.05
Neigh   | 0          | 0          | 0          |   0.0 |  0.00
Comm    | 0.00136    | 0.00136    | 0.00136    |   0.0 |  0.02
Output  | 0.049847   | 0.049847   | 0.049847   |   0.0 |  0.87
Modify  | 1.8245     | 1.8245     | 1.8245     |   0.0 | 31.76
Other   |            | 3.866      |            |       | 67.30

Nlocal:        7.00000 ave           7 max           7 min
Histogram: 1 0 0 0 0 0 0 0 0 0
Nghost:        0.00000 ave           0 max           0 min
Histogram: 1 0 0 0 0 0 0 0 0 0
Neighs:        0.00000 ave           0 max           0 min
Histogram: 1 0 0 0 0 0 0 0 0 0

Total # of neighbors = 0
Ave neighs/atom = 0.0000000
Ave special neighs/atom = 6.0000000
Neighbor list builds = 0
Dangerous builds = 0
Total wall time: 0:00:18
