LAMMPS (29 Oct 2020)
Processor partition = 3
Reading data file ...
  orthogonal box = (-6.0000000 -6.0000000 -6.0000000) to (6.0000000 6.0000000 6.0000000)
  1 by 1 by 1 MPI processor grid
  reading atoms ...
  7 atoms
  scanning bonds ...
  3 = max bonds/atom
  reading bonds ...
  11 bonds
Finding 1-2 1-3 1-4 neighbors ...
  special bond factors lj:    0.0      0.0      0.0     
  special bond factors coul:  0.0      0.0      0.0     
     4 = max # of 1-2 neighbors
     8 = max # of 1-3 neighbors
    24 = max # of 1-4 neighbors
     6 = max # of special neighbors
  special bonds CPU = 0.000 seconds
  read_data CPU = 0.011 seconds
WARNING: Using 'neigh_modify every 1 delay 0 check yes' setting during minimization (../min.cpp:187)
Setting up quickmin style minimization ...
  Unit style    : lj
  Current step  : 0
Per MPI rank memory allocation (min/avg/max) = 4.840 | 4.840 | 4.840 Mbytes
Step Temp E_pair E_mol TotEng Press 
       0            0            0  0.013902981  0.013902981 0.0052634475 
     100 1.0423021e-07            0 6.8448201e-09 9.6185002e-08 1.758511e-07 
     200 3.9646123e-10            0 3.6039523e-09 3.9437762e-09 3.2496005e-09 
     300 2.0847804e-11            0 3.5478172e-09 3.5656867e-09 -4.1893569e-10 
     400 2.7156815e-12            0 3.4907794e-09 3.4931071e-09 -5.3966247e-10 
     500 1.1309962e-11            0 3.4355283e-09 3.4452225e-09 -5.3699044e-10 
     600 1.8343225e-11            0 3.3783948e-09 3.3941176e-09 -5.276258e-10 
     700 2.2853444e-11            0 3.322482e-09 3.3420707e-09 -5.1910858e-10 
     800 2.1881132e-11            0 3.2673497e-09 3.2861049e-09 -5.0229993e-10 
     900 2.2303495e-12            0 3.2148619e-09 3.2167737e-09 -5.046949e-10 
    1000 4.9337802e-12            0 3.160464e-09 3.1646929e-09 -4.7343533e-10 
    1100 1.9767868e-11            0 3.1085686e-09 3.1255124e-09 -4.8884774e-10 
    1200 9.2021401e-12            0 3.0569697e-09 3.0648573e-09 -4.5192745e-10 
    1300 2.4549872e-11            0 3.0066307e-09 3.0276735e-09 -4.8126712e-10 
    1400 5.9397238e-12            0 2.9603502e-09 2.9654414e-09 -4.7074789e-10 
    1500 1.7499538e-12            0 2.9131898e-09 2.9146898e-09 -4.6446521e-10 
    1600 3.5570336e-12            0 2.8677437e-09 2.8707926e-09 -4.5948354e-10 
    1700 3.0152674e-12            0 2.8207203e-09 2.8233048e-09 -4.5389868e-10 
    1800 2.9515151e-12            0 2.7744036e-09 2.7769335e-09 -4.4847897e-10 
    1900 6.4886903e-12            0 2.7300855e-09 2.7356472e-09 -4.4323354e-10 
    2000 1.0578729e-11            0 2.6861427e-09 2.6952102e-09 -4.3808621e-10 
Loop time of 0.51096 on 1 procs for 2000 steps with 7 atoms

22.5% CPU use with 1 MPI tasks x no OpenMP threads

Minimization stats:
  Stopping criterion = max iterations
  Energy initial, next-to-last, final = 
    0.0139029808757101 2.68665049134324e-09 2.6861426985152e-09
  Force two-norm initial, final = 1.0352614 3.9119073e-06
  Force max component initial, final = 0.59364942 2.2278021e-06
  Final line search alpha, max atom move = 0.0000000 0.0000000
  Iterations, force evaluations = 2000 2000

MPI task timing breakdown:
Section |  min time  |  avg time  |  max time  |%varavg| %total
---------------------------------------------------------------
Pair    | 0          | 0          | 0          |   0.0 |  0.00
Bond    | 0.001127   | 0.001127   | 0.001127   |   0.0 |  0.22
Neigh   | 0          | 0          | 0          |   0.0 |  0.00
Comm    | 0.000439   | 0.000439   | 0.000439   |   0.0 |  0.09
Output  | 0.23131    | 0.23131    | 0.23131    |   0.0 | 45.27
Modify  | 0.092176   | 0.092176   | 0.092176   |   0.0 | 18.04
Other   |            | 0.1859     |            |       | 36.38

Nlocal:        7.00000 ave           7 max           7 min
Histogram: 1 0 0 0 0 0 0 0 0 0
Nghost:        0.00000 ave           0 max           0 min
Histogram: 1 0 0 0 0 0 0 0 0 0
Neighs:        0.00000 ave           0 max           0 min
Histogram: 1 0 0 0 0 0 0 0 0 0

Total # of neighbors = 0
Ave neighs/atom = 0.0000000
Ave special neighs/atom = 6.0000000
Neighbor list builds = 0
Dangerous builds = 0
WARNING: Using 'neigh_modify every 1 delay 0 check yes' setting during minimization (../min.cpp:187)
Setting up quickmin style minimization ...
  Unit style    : lj
  Current step  : 2000
Per MPI rank memory allocation (min/avg/max) = 4.840 | 4.840 | 4.840 Mbytes
Step Temp E_pair E_mol TotEng Press 
    2000            0            0 2.6861427e-09 2.6861427e-09 -4.3852699e-10 
    2100 2.9117579e-11            0 2.6489318e-09 2.6738897e-09 4.2748659e-10 
    2200 4.9624307e-11            0 2.6106896e-09 2.6532247e-09 4.2215907e-10 
    2300 5.2703129e-11            0 2.5740355e-09 2.6192096e-09 4.1576687e-10 
    2400 3.4515264e-11            0 2.5370065e-09 2.566591e-09 4.0840863e-10 
    2500 5.7289248e-11            0 2.4994188e-09 2.5485238e-09 4.026376e-10 
    2600 9.5550932e-12            0 2.4649851e-09 2.4731752e-09 3.9450369e-10 
    2700 9.1128217e-12            0 2.4283955e-09 2.4362065e-09 3.879225e-10 
    2800 1.3541667e-11            0 2.3942993e-09 2.4059064e-09 3.8197212e-10 
    2900 1.0275871e-11            0 2.3573615e-09 2.3661694e-09 3.7554645e-10 
    3000 1.3781578e-11            0 2.323126e-09 2.3349387e-09 3.6915048e-10 
    3100 1.1325356e-11            0 2.2909596e-09 2.300667e-09 3.6323746e-10 
    3200 1.4728917e-11            0 2.2589529e-09 2.2715777e-09 3.5757715e-10 
    3300 3.4058778e-11            0 2.2265475e-09 2.2557408e-09 3.5249536e-10 
    3400 2.0014586e-11            0 2.1941395e-09 2.2112948e-09 3.4602171e-10 
    3500 3.5807229e-11            0 2.1622383e-09 2.1929302e-09 3.4086543e-10 
    3600 5.551526e-11            0 2.1304247e-09 2.1780092e-09 3.3587035e-10 
    3700 3.1496498e-11            0 2.0993576e-09 2.1263546e-09 3.2912749e-10 
    3800 4.8320552e-11            0 2.0693403e-09 2.1107579e-09 3.2440454e-10 
    3900 4.877455e-12            0 2.038958e-09 2.0431386e-09 3.170368e-10 
    4000 2.8670878e-11            0 2.0115067e-09 2.0360818e-09 3.1297249e-10 
Loop time of 0.098432 on 1 procs for 2000 steps with 7 atoms

61.5% CPU use with 1 MPI tasks x no OpenMP threads

Minimization stats:
  Stopping criterion = max iterations
  Energy initial, next-to-last, final = 
    2.6861426985152e-09 2.0118508998213e-09 2.01150671365717e-09
  Force two-norm initial, final = 4.4306857e-06 6.3654357e-06
  Force max component initial, final = 2.4996340e-06 3.0549405e-06
  Final line search alpha, max atom move = 0.0000000 0.0000000
  Iterations, force evaluations = 2000 2000

MPI task timing breakdown:
Section |  min time  |  avg time  |  max time  |%varavg| %total
---------------------------------------------------------------
Pair    | 0          | 0          | 0          |   0.0 |  0.00
Bond    | 0.000836   | 0.000836   | 0.000836   |   0.0 |  0.85
Neigh   | 0          | 0          | 0          |   0.0 |  0.00
Comm    | 0.000235   | 0.000235   | 0.000235   |   0.0 |  0.24
Output  | 0.026637   | 0.026637   | 0.026637   |   0.0 | 27.06
Modify  | 0.0254     | 0.0254     | 0.0254     |   0.0 | 25.80
Other   |            | 0.04532    |            |       | 46.05

Nlocal:        7.00000 ave           7 max           7 min
Histogram: 1 0 0 0 0 0 0 0 0 0
Nghost:        0.00000 ave           0 max           0 min
Histogram: 1 0 0 0 0 0 0 0 0 0
Neighs:        0.00000 ave           0 max           0 min
Histogram: 1 0 0 0 0 0 0 0 0 0

Total # of neighbors = 0
Ave neighs/atom = 0.0000000
Ave special neighs/atom = 6.0000000
Neighbor list builds = 0
Dangerous builds = 0
Total wall time: 0:00:00
