LAMMPS (29 Oct 2020)
Processor partition = 48
Reading data file ...
  orthogonal box = (-6.0000000 -6.0000000 -6.0000000) to (6.0000000 6.0000000 6.0000000)
  1 by 1 by 1 MPI processor grid
  reading atoms ...
  7 atoms
  scanning bonds ...
  3 = max bonds/atom
  reading bonds ...
  11 bonds
Finding 1-2 1-3 1-4 neighbors ...
  special bond factors lj:    0.0      0.0      0.0     
  special bond factors coul:  0.0      0.0      0.0     
     4 = max # of 1-2 neighbors
     9 = max # of 1-3 neighbors
    28 = max # of 1-4 neighbors
     6 = max # of special neighbors
  special bonds CPU = 0.000 seconds
  read_data CPU = 0.094 seconds
WARNING: Using 'neigh_modify every 1 delay 0 check yes' setting during minimization (../min.cpp:187)
Setting up quickmin style minimization ...
  Unit style    : lj
  Current step  : 0
Per MPI rank memory allocation (min/avg/max) = 4.840 | 4.840 | 4.840 Mbytes
Step Temp E_pair E_mol TotEng Press 
       0            0            0  0.064689021  0.064689021  0.013120527 
     100 1.2337797e-06            0 8.9643037e-06 1.0021829e-05 9.2181694e-07 
     200 2.4602641e-07            0 7.5476782e-06 7.758558e-06 -3.6146085e-08 
     300 3.0972395e-08            0 7.0030561e-06 7.0296038e-06 -3.0718737e-07 
     400 3.4468843e-07            0 6.2780933e-06 6.5735405e-06 -3.7979282e-07 
     500 3.9085849e-07            0 5.3482921e-06 5.6833136e-06 -4.1416583e-07 
     600 4.0968299e-07            0 4.3554691e-06 4.7066259e-06 -4.159261e-07 
     700 4.2938532e-07            0 3.4581653e-06 3.8262098e-06 -3.9090383e-07 
     800 1.6335228e-07            0 2.8216763e-06 2.9616926e-06 -3.9760272e-07 
     900 1.3679166e-07            0 2.3288944e-06 2.4461444e-06 -3.4281273e-07 
    1000 7.6104805e-08            0 1.9500006e-06 2.0152332e-06 -3.8181754e-07 
    1100 3.3799034e-08            0 1.6510833e-06 1.6800539e-06 -3.118589e-07 
    1200   2.4952e-08            0 1.4149775e-06 1.4363649e-06 -2.8344929e-07 
    1300 1.8004923e-08            0 1.225581e-06 1.2410138e-06 -2.6807392e-07 
    1400 1.3535871e-08            0 1.070656e-06 1.0822582e-06 -2.5944836e-07 
    1500 2.1744841e-08            0 9.4224136e-07 9.608798e-07 -2.6993984e-07 
    1600 3.2621694e-08            0 8.3417042e-07 8.6213187e-07 -2.2497392e-07 
    1700 5.4276047e-09            0 7.4247844e-07 7.4713068e-07 -2.1628698e-07 
    1800 1.3657352e-08            0 6.6257858e-07 6.7428488e-07 -2.1093444e-07 
    1900 2.8230862e-09            0 5.9343752e-07 5.9585731e-07 -1.923819e-07 
    2000 5.0309736e-09            0  5.33191e-07 5.3750327e-07 -1.9545558e-07 
Loop time of 12.3182 on 1 procs for 2000 steps with 7 atoms

3.7% CPU use with 1 MPI tasks x no OpenMP threads

Minimization stats:
  Stopping criterion = max iterations
  Energy initial, next-to-last, final = 
    0.0646890211215611 5.33787486711796e-07 5.33191004452386e-07
  Force two-norm initial, final = 2.6356044 0.0001118822
  Force max component initial, final = 1.3658040 5.0374261e-05
  Final line search alpha, max atom move = 0.0000000 0.0000000
  Iterations, force evaluations = 2000 2000

MPI task timing breakdown:
Section |  min time  |  avg time  |  max time  |%varavg| %total
---------------------------------------------------------------
Pair    | 0          | 0          | 0          |   0.0 |  0.00
Bond    | 0.003063   | 0.003063   | 0.003063   |   0.0 |  0.02
Neigh   | 2e-06      | 2e-06      | 2e-06      |   0.0 |  0.00
Comm    | 0.001367   | 0.001367   | 0.001367   |   0.0 |  0.01
Output  | 0.20782    | 0.20782    | 0.20782    |   0.0 |  1.69
Modify  | 3.956      | 3.956      | 3.956      |   0.0 | 32.12
Other   |            | 8.15       |            |       | 66.16

Nlocal:        7.00000 ave           7 max           7 min
Histogram: 1 0 0 0 0 0 0 0 0 0
Nghost:        0.00000 ave           0 max           0 min
Histogram: 1 0 0 0 0 0 0 0 0 0
Neighs:        0.00000 ave           0 max           0 min
Histogram: 1 0 0 0 0 0 0 0 0 0

Total # of neighbors = 0
Ave neighs/atom = 0.0000000
Ave special neighs/atom = 6.0000000
Neighbor list builds = 1
Dangerous builds = 0
WARNING: Using 'neigh_modify every 1 delay 0 check yes' setting during minimization (../min.cpp:187)
Setting up quickmin style minimization ...
  Unit style    : lj
  Current step  : 2000
Per MPI rank memory allocation (min/avg/max) = 4.840 | 4.840 | 4.840 Mbytes
Step Temp E_pair E_mol TotEng Press 
    2000            0            0  5.33191e-07  5.33191e-07 -1.9566521e-07 
    2100 2.0215469e-08            0 7.0487007e-07 7.2219761e-07 -2.0760439e-07 
    2200 1.8159111e-08            0 8.5903837e-07 8.7460332e-07 -2.301546e-07 
    2300 1.1841883e-08            0 9.8276648e-07 9.9291666e-07 -2.4369458e-07 
    2400 2.3697769e-09            0 1.0766898e-06 1.0787211e-06 -2.575224e-07 
    2500 1.4957852e-09            0 1.1475148e-06 1.1487969e-06 -2.6893899e-07 
    2600 3.0634046e-09            0 1.198829e-06 1.2014548e-06 -2.6977963e-07 
    2700 6.0372465e-10            0 1.2349408e-06 1.2354582e-06 -2.7885008e-07 
    2800 3.2306773e-10            0 1.2594479e-06 1.2597248e-06 -2.7885118e-07 
    2900 4.485319e-10            0 1.2757127e-06 1.2760972e-06 -2.81275e-07 
    3000 2.2228584e-10            0 1.2865699e-06 1.2867604e-06 -2.8223018e-07 
    3100 2.1368726e-10            0 1.2941374e-06 1.2943206e-06 -2.8304139e-07 
    3200 1.431012e-10            0 1.2993881e-06 1.2995107e-06 -2.8361628e-07 
    3300 9.5085054e-11            0 1.3029323e-06 1.3030138e-06 -2.8399537e-07 
    3400 6.0463542e-11            0 1.3052607e-06 1.3053125e-06 -2.8424061e-07 
    3500 3.6843085e-11            0 1.3067492e-06 1.3067808e-06 -2.8440402e-07 
    3600 2.4472128e-11            0 1.3076758e-06 1.3076967e-06 -2.8449591e-07 
    3700 1.6127144e-11            0 1.308219e-06 1.3082328e-06 -2.8455924e-07 
    3800 1.0489831e-11            0 1.3085052e-06 1.3085142e-06 -2.8458848e-07 
    3900 6.752576e-12            0 1.308621e-06 1.3086268e-06 -2.8460003e-07 
    4000 4.410922e-12            0 1.3086266e-06 1.3086304e-06 -2.8460334e-07 
Loop time of 5.74434 on 1 procs for 2000 steps with 7 atoms

5.8% CPU use with 1 MPI tasks x no OpenMP threads

Minimization stats:
  Stopping criterion = max iterations
  Energy initial, next-to-last, final = 
    5.33191004452386e-07 1.30862694247562e-06 1.30862663343449e-06
  Force two-norm initial, final = 0.00011238251 3.7434322e-06
  Force max component initial, final = 5.2141458e-05 1.9088440e-06
  Final line search alpha, max atom move = 0.0000000 0.0000000
  Iterations, force evaluations = 2000 2000

MPI task timing breakdown:
Section |  min time  |  avg time  |  max time  |%varavg| %total
---------------------------------------------------------------
Pair    | 0          | 0          | 0          |   0.0 |  0.00
Bond    | 0.002573   | 0.002573   | 0.002573   |   0.0 |  0.04
Neigh   | 0          | 0          | 0          |   0.0 |  0.00
Comm    | 0.001002   | 0.001002   | 0.001002   |   0.0 |  0.02
Output  | 0.050259   | 0.050259   | 0.050259   |   0.0 |  0.87
Modify  | 1.8648     | 1.8648     | 1.8648     |   0.0 | 32.46
Other   |            | 3.826      |            |       | 66.60

Nlocal:        7.00000 ave           7 max           7 min
Histogram: 1 0 0 0 0 0 0 0 0 0
Nghost:        0.00000 ave           0 max           0 min
Histogram: 1 0 0 0 0 0 0 0 0 0
Neighs:        0.00000 ave           0 max           0 min
Histogram: 1 0 0 0 0 0 0 0 0 0

Total # of neighbors = 0
Ave neighs/atom = 0.0000000
Ave special neighs/atom = 6.0000000
Neighbor list builds = 0
Dangerous builds = 0
Total wall time: 0:00:18
