# LAMMPS data file for rigid bodies 
 
      9     atoms
     16     bonds
     0     angles
     0     dihedrals

     2     atom types 
     16     bond types 
     0     angle types
     0     dihedral types

     -6     6 xlo xhi
     -6     6 ylo yhi
     -6     6 zlo zhi

Masses

     1     1
     2     1

Atoms

     1     1     2     0.5     0.134     0.0
     2     1     1     -0.5     0.134     0.0
     3     1     1     0.366     0.634     0.0
     4     1     1     -0.366     0.634     0.0
     5     1     1     0.0     0.0     0.0
     6     1     1     0.0     1.0     0.0
     7     1     1     0.0     0.333     0.0
     8     1     1     0.0096     0.171     0.0
     9     1     1     0.0001     0.9497     0.0

Bonds

     1     1     2     5
     2     2     2     4
     3     3     4     6
     4     4     6     3
     5     5     3     1
     6     6     1     5
     7     7     2     7
     8     8     4     7
     9     9     3     7
     10     10     1     7
     11     11     4     8
     12     12     3     8
     13     13     5     8
     14     14     1     9
     15     15     2     9
     16     16     6     9

Bond Coeffs

     1     1     0.5176446657698697
     2     1     0.5176446657698697
     3     1     0.5176021638285527
     4     1     0.5176021638285527
     5     1     0.5176446657698697
     6     1     0.5176446657698697
     7     1     0.5381458909998291
     8     1     0.4738744559479863
     9     1     0.4738744559479863
     10     1     0.5381458909998291
     11     1     0.5961915464009868
     12     1     0.5842858546978524
     13     1     0.17126926169047382
     14     1     0.9566956151253124
     15     1     0.9568001358695556
     16     1     0.05030009940348032
