# LAMMPS data file for rigid bodies 
 
      9     atoms
     16     bonds
     0     angles
     0     dihedrals

     2     atom types 
     16     bond types 
     0     angle types
     0     dihedral types

     -6     6 xlo xhi
     -6     6 ylo yhi
     -6     6 zlo zhi

Masses

     1     1
     2     1

Atoms

     1     1     2     0.4314     0.1964     0.0
     2     1     1     -0.4314     0.1964     0.0
     3     1     1     0.4314     0.714     0.0
     4     1     1     -0.4314     0.714     0.0
     5     1     1     0.0     0.4824     0.0
     6     1     1     0.0     1.0     0.0
     7     1     1     0.0     0.518     0.0
     8     1     1     0.0081     0.3113     0.0
     9     1     1     0.0002     1.0503     0.0

Bonds

     1     1     2     5
     2     2     2     4
     3     3     4     6
     4     4     6     3
     5     5     3     1
     6     6     1     5
     7     7     2     7
     8     8     4     7
     9     9     3     7
     10     10     1     7
     11     11     4     8
     12     12     3     8
     13     13     5     8
     14     14     1     9
     15     15     2     9
     16     16     6     9

Bond Coeffs

     1     1     0.5175924651692682
     2     1     0.5176
     3     1     0.5175924651692682
     4     1     0.5175924651692682
     5     1     0.5176
     6     1     0.5175924651692682
     7     1     0.5380822613690216
     8     1     0.4738374826878937
     9     1     0.4738374826878937
     10     1     0.5380822613690216
     11     1     0.5960935664809678
     12     1     0.5842518121495217
     13     1     0.17129162267898565
     14     1     0.956597433615625
     15     1     0.9567778059716895
     16     1     0.0503003976127426
