# LAMMPS data file for rigid bodies 
 
     20     atoms
     24     bonds
     0     angles
     0     dihedrals

     2     atom types 
     24     bond types 
     0     angle types
     0     dihedral types

     -6     6 xlo xhi
     -6     6 ylo yhi
     -6     6 zlo zhi

Masses

     1     100000
     2     1

Atoms

     1     1     1     0.0     0.0     1.0
     2     1     1     1.0     0.0     1.0
     3     1     1     1.0     1.0     1.0
     4     1     1     0.0     1.0     1.0
     5     1     1     0.0     0.0     0.0
     6     1     1     1.0     0.0     0.0
     7     1     1     1.0     1.0     0.0
     8     1     1     0.0     1.0     0.0
     9     2     2     0.5     0.0     1.0
     10     2     2     1.0     0.5     1.0
     11     2     2     0.5     1.0     1.0
     12     2     2     0.0     0.5     1.0
     13     2     2     0.0     0.0     0.5
     14     2     2     1.0     0.0     0.5
     15     2     2     1.0     1.0     0.5
     16     2     2     0.0     1.0     0.5
     17     2     2     0.5     0.0     0.0
     18     2     2     1.0     0.5     0.0
     19     2     2     0.5     1.0     0.0
     20     2     2     0.0     0.5     0.0

Bonds

     1     1     1     9
     2     2     9     2
     3     3     2     10
     4     4     10     3
     5     5     3     11
     6     6     11     4
     7     7     4     12
     8     8     12     1
     9     9     1     13
     10     10     13     5
     11     11     2     14
     12     12     14     6
     13     13     3     15
     14     14     15     7
     15     15     4     16
     16     16     16     8
     17     17     5     17
     18     18     17     6
     19     19     6     18
     20     20     18     7
     21     21     7     19
     22     22     19     8
     23     23     8     20
     24     24     20     5

Bond Coeffs

     1     1     0.5
     2     1     0.5
     3     1     0.5
     4     1     0.5
     5     1     0.5
     6     1     0.5
     7     1     0.5
     8     1     0.5
     9     1     0.5
     10     1     0.5
     11     1     0.5
     12     1     0.5
     13     1     0.5
     14     1     0.5
     15     1     0.5
     16     1     0.5
     17     1     0.5
     18     1     0.5
     19     1     0.5
     20     1     0.5
     21     1     0.5
     22     1     0.5
     23     1     0.5
     24     1     0.5
