# LAMMPS data file for rigid bodies 
 
     1318     atoms
     2218     bonds
     0     angles
     0     dihedrals

     2     atom types 
     2218     bond types 
     0     angle types
     0     dihedral types

     -6     6 xlo xhi
     -6     6 ylo yhi
     -6     6 zlo zhi

Masses

     1     1000000000000000000
     2     1

Atoms

     1     1     1     -0.26     -0.77     -0.14
     2     1     1     -0.27     -0.95     -0.04
     3     1     1     -0.05     -0.92     -0.02
     4     1     1     -0.25     -0.88     0.2
     5     1     1     -0.17     -0.6     -0.07
     6     1     1     -0.12     -0.67     0.07
     7     1     1     -0.06     -0.82     0.26
     8     1     1     -0.39     -0.23     0.59
     9     1     1     -0.06     -0.29     0.7
     10     1     1     -0.53     -0.23     0.08
     11     1     1     -0.37     -0.21     0.16
     12     1     1     -0.54     -0.12     0.13
     13     1     1     -0.55     -0.08     0.34
     14     1     1     -0.47     -0.58     -0.13
     15     1     1     -0.47     -0.71     0.11
     16     1     1     -0.24     -0.68     0.49
     17     1     1     -0.57     -0.25     0.39
     18     1     1     -0.42     -0.34     0.48
     19     1     1     -0.22     -0.51     0.66
     20     1     1     -0.26     -0.03     0.59
     21     1     1     -0.59     -0.38     0.29
     22     1     1     -0.41     -0.01     -0.07
     23     1     1     -0.38     0.12     0.06
     24     1     1     -0.11     -0.34     0.45
     25     1     1     -0.06     0.04     0.62
     26     1     1     -0.3     0.44     0.3
     27     1     1     -0.05     0.2     0.34
     28     1     1     -0.14     0.32     -0.2
     29     1     1     -0.32     0.02     -0.37
     30     1     1     -0.57     -0.33     -0.21
     31     1     1     -0.37     -0.53     0.46
     32     1     1     -0.43     0.33     0.21
     33     1     1     -0.48     0.06     0.28
     34     1     1     -0.24     0.61     -0.01
     35     1     1     -0.09     -0.73     0.38
     36     1     1     -0.06     -0.6     0.56
     37     1     1     -0.04     -0.26     0.33
     38     1     1     -0.25     0.2     0.51
     39     1     1     -0.06     -0.53     0.33
     40     1     1     -0.06     0.47     0.0
     41     1     1     -0.55     -0.04     -0.2
     42     1     1     -0.58     -0.32     -0.01
     43     1     1     -0.48     -0.63     0.35
     44     1     1     -0.09     0.48     0.41
     45     1     1     -0.41     0.14     0.48
     46     1     1     -0.35     0.21     -0.11
     47     1     1     -0.47     0.33     -0.03
     48     1     1     -0.11     -0.56     0.13
     49     1     1     -0.26     -0.34     -0.17
     50     1     1     -0.57     -0.5     0.12
     51     1     1     0.27     -0.66     -0.12
     52     1     1     0.22     -0.96     -0.05
     53     1     1     0.36     -0.82     0.16
     54     1     1     0.08     -0.76     0.05
     55     1     1     0.17     -0.57     0.05
     56     1     1     0.13     -0.86     0.29
     57     1     1     0.47     -0.11     0.48
     58     1     1     0.41     -0.22     0.6
     59     1     1     0.3     -0.37     0.64
     60     1     1     0.06     -0.26     0.7
     61     1     1     0.53     -0.16     0.07
     62     1     1     0.4     -0.15     0.15
     63     1     1     0.57     -0.04     0.11
     64     1     1     0.58     -0.05     0.31
     65     1     1     0.49     -0.6     -0.11
     66     1     1     0.5     -0.62     0.16
     67     1     1     0.27     -0.67     0.51
     68     1     1     0.5     -0.24     0.42
     69     1     1     0.14     -0.52     0.66
     70     1     1     0.28     -0.03     0.59
     71     1     1     0.61     -0.26     0.27
     72     1     1     0.4     0.08     0.01
     73     1     1     0.11     -0.31     0.45
     74     1     1     0.07     0.06     0.52
     75     1     1     0.57     -0.39     0.44
     76     1     1     0.32     0.46     0.29
     77     1     1     0.06     0.28     0.3
     78     1     1     0.12     0.35     -0.2
     79     1     1     0.38     0.01     -0.38
     80     1     1     0.38     -0.45     0.49
     81     1     1     0.45     0.39     0.15
     82     1     1     0.49     0.1     0.27
     83     1     1     0.62     -0.23     -0.19
     84     1     1     0.45     -0.63     0.46
     85     1     1     0.43     0.16     0.45
     86     1     1     0.3     0.58     -0.03
     87     1     1     0.05     -0.27     0.33
     88     1     1     0.09     -0.66     0.43
     89     1     1     0.55     -0.51     0.31
     90     1     1     0.26     0.24     0.5
     91     1     1     0.07     -0.52     0.31
     92     1     1     0.07     0.48     0.01
     93     1     1     0.11     0.5     0.39
     94     1     1     0.35     0.26     -0.15
     95     1     1     0.51     0.28     0.0
     96     1     1     0.12     -0.54     0.14
     97     1     1     0.32     -0.31     -0.22
     98     1     1     0.51     0.07     -0.18
     99     1     1     0.57     -0.26     -0.02
     100     1     1     0.58     -0.42     0.13
     101     2     2     0.21333333333333335     0.27666666666666667     0.2666666666666667
     102     2     2     0.16666666666666669     0.3133333333333333     0.03333333333333338
     103     2     2     0.44499999999999995     -0.28500000000000003     -0.12000000000000001
     104     2     2     -0.32999999999999996     0.17     0.495
     105     2     2     0.33     -0.11999999999999997     -0.19666666666666666
     106     2     2     0.33999999999999997     0.07000000000000006     -0.17333333333333334
     107     2     2     -0.325     -0.13     0.59
     108     2     2     -0.575     -0.41000000000000003     0.05499999999999999
     109     2     2     0.47500000000000003     -0.33     0.22999999999999998
     110     2     2     0.26     -0.265     0.525
     111     2     2     -0.54     -0.15500000000000003     0.21000000000000002
     112     2     2     -0.37     0.015     0.435
     113     2     2     0.25     0.18     -0.29000000000000004
     114     2     2     0.14333333333333334     -0.73     0.20333333333333337
     115     2     2     0.20666666666666667     -0.7000000000000001     0.3566666666666667
     116     2     2     0.565     -0.08000000000000002     -0.185
     117     2     2     -0.48     -0.1     0.024999999999999994
     118     2     2     -0.08499999999999999     0.5449999999999999     0.0
     119     2     2     0.22999999999999998     -0.245     0.46499999999999997
     120     2     2     -0.48     -0.025     -0.135
     121     2     2     0.58     -0.235     0.22
     122     2     2     -0.1     -0.5466666666666666     -0.13
     123     2     2     0.06     -0.7533333333333333     -0.09000000000000001
     124     2     2     -0.58     -0.44     0.205
     125     2     2     -0.1     -0.14500000000000002     0.645
     126     2     2     -0.33999999999999997     -0.185     0.5349999999999999
     127     2     2     0.11     -0.76     0.36
     128     2     2     0.595     -0.245     -0.10500000000000001
     129     2     2     -0.305     0.325     -0.115
     130     2     2     -0.06     -0.44499999999999995     0.63
     131     2     2     0.495     -0.355     0.38
     132     2     2     0.185     0.53     -0.01
     133     2     2     0.24333333333333335     -0.20999999999999996     0.41000000000000003
     134     2     2     0.20666666666666667     -0.3899999999999999     0.23000000000000004
     135     2     2     0.595     -0.15500000000000003     0.29000000000000004
     136     2     2     0.11499999999999999     -0.42500000000000004     0.29500000000000004
     137     2     2     -0.415     -0.635     -0.010000000000000009
     138     2     2     0.575     -0.23     0.12
     139     2     2     -0.53     -0.5449999999999999     0.2
     140     2     2     -0.155     -0.85     0.23
     141     2     2     -0.075     -0.7749999999999999     0.32
     142     2     2     0.5349999999999999     0.024999999999999994     0.29000000000000004
     143     2     2     0.0     -0.43     0.63
     144     2     2     0.51     -0.24     0.435
     145     2     2     -0.405     -0.28500000000000003     0.5349999999999999
     146     2     2     0.51     -0.51     0.45
     147     2     2     -0.10666666666666667     -0.52     0.4866666666666667
     148     2     2     0.006666666666666654     -0.53     0.31333333333333335
     149     2     2     0.03     0.35     0.365
     150     2     2     0.575     -0.22000000000000003     0.375
     151     2     2     0.17     -0.5900000000000001     0.095
     152     2     2     0.07999999999999999     -0.6266666666666667     0.2733333333333333
     153     2     2     0.21999999999999997     -0.7233333333333333     0.21666666666666667
     154     2     2     0.29500000000000004     -0.485     -0.16999999999999998
     155     2     2     0.425     -0.71     0.02500000000000001
     156     2     2     -0.265     -0.34     0.46499999999999997
     157     2     2     -0.255     -0.825     0.03
     158     2     2     0.22000000000000003     -0.615     -0.03499999999999999
     159     2     2     -0.46     -0.125     -0.020000000000000018
     160     2     2     0.25     -0.03333333333333334     0.21333333333333332
     161     2     2     0.10000000000000003     0.08333333333333331     0.27666666666666667
     162     2     2     0.54     -0.145     0.365
     163     2     2     -0.14500000000000002     -0.635     0.0
     164     2     2     0.5549999999999999     -0.10500000000000001     0.19
     165     2     2     0.13333333333333333     -0.5266666666666667     0.4866666666666667
     166     2     2     0.12666666666666668     -0.5333333333333333     0.31333333333333335
     167     2     2     0.0050000000000000044     -0.6699999999999999     0.28500000000000003
     168     2     2     -0.14     -0.52     0.495
     169     2     2     0.0     -0.325     0.45
     170     2     2     0.45999999999999996     0.13     0.36
     171     2     2     -0.56     -0.16499999999999998     0.365
     172     2     2     -0.20500000000000002     -0.395     0.395
     173     2     2     0.49     -0.305     0.52
     174     2     2     0.22     -0.79     0.10500000000000001
     175     2     2     0.325     -0.56     0.5
     176     2     2     0.43     0.165     -0.16499999999999998
     177     2     2     0.08499999999999999     -0.71     0.24
     178     2     2     -0.315     -0.275     -0.0050000000000000044
     179     2     2     0.08499999999999999     -0.28500000000000003     0.575
     180     2     2     0.010000000000000009     0.49     0.4
     181     2     2     -0.25666666666666665     0.003333333333333327     0.43
     182     2     2     -0.10333333333333333     -0.13333333333333336     0.38
     183     2     2     0.03     -0.535     0.23500000000000001
     184     2     2     0.305     -0.5700000000000001     0.015
     185     2     2     -0.45     -0.22     0.12
     186     2     2     0.0050000000000000044     0.475     0.005
     187     2     2     0.31000000000000005     -0.515     0.31
     188     2     2     -0.485     -0.21000000000000002     0.41000000000000003
     189     2     2     0.245     -0.81     -0.08499999999999999
     190     2     2     -0.3333333333333333     -0.2066666666666667     -0.01999999999999999
     191     2     2     -0.4066666666666666     -0.07333333333333336     0.13000000000000003
     192     2     2     -0.16     0.0049999999999999975     0.605
     193     2     2     -0.31999999999999995     -0.655     0.01999999999999999
     194     2     2     0.52     -0.2533333333333333     0.09
     195     2     2     0.46     -0.08666666666666667     0.05
     196     2     2     -0.425     -0.5800000000000001     0.405
     197     2     2     0.44     -0.345     0.45499999999999996
     198     2     2     -0.45     -0.22     0.12
     199     2     2     0.015     -0.74     0.345
     200     2     2     -0.08499999999999999     -0.69     0.195
     201     2     2     0.57     -0.15     0.045
     202     2     2     0.0     -0.605     0.10500000000000001
     203     2     2     -0.16     -0.935     -0.03
     204     2     2     0.015     -0.595     0.38
     205     2     2     -0.395     -0.43500000000000005     0.47
     206     2     2     0.355     -0.295     0.62
     207     2     2     -0.19     -0.72     -0.035
     208     2     2     0.575     -0.22     0.375
     209     2     2     0.11000000000000001     -0.42     0.19
     210     2     2     -0.06     -0.675     0.29500000000000004
     211     2     2     -0.32999999999999996     0.17     0.495
     212     2     2     0.57     -0.21500000000000002     0.275
     213     2     2     0.485     -0.095     0.13
     214     2     2     -0.08499999999999999     -0.5800000000000001     0.34500000000000003
     215     2     2     -0.22999999999999998     -0.30000000000000004     0.405
     216     2     2     0.0     -0.3966666666666667     0.49
     217     2     2     -0.06     -0.5333333333333334     0.28
     218     2     2     -0.365     0.385     0.255
     219     2     2     0.0049999999999999975     0.24000000000000002     0.32
     220     2     2     -0.3733333333333334     -0.16666666666666666     0.19666666666666666
     221     2     2     -0.20666666666666672     -0.21333333333333332     0.2633333333333333
     222     2     2     -0.585     -0.35     0.13999999999999999
     223     2     2     -0.39     -0.034999999999999976     0.32
     224     2     2     -0.15     0.54     -0.005
     225     2     2     -0.055     -0.87     0.12
     226     2     2     0.475     -0.42000000000000004     0.46499999999999997
     227     2     2     -0.05499999999999999     -0.77     0.39
     228     2     2     -0.445     0.044999999999999984     0.010000000000000009
     229     2     2     0.15000000000000002     -0.5366666666666666     0.45666666666666667
     230     2     2     0.16     -0.5533333333333333     0.25333333333333335
     231     2     2     -0.295     -0.69     0.09
     232     2     2     0.10500000000000001     -0.745     0.385
     233     2     2     0.5433333333333333     -0.039999999999999994     -0.03
     234     2     2     0.5766666666666667     -0.15     0.12
     235     2     2     0.5233333333333333     -0.35333333333333333     0.2866666666666666
     236     2     2     0.4666666666666666     -0.2866666666666666     0.4433333333333333
     237     2     2     -0.26     0.22     -0.07
     238     2     2     0.1     -0.39     0.6799999999999999
     239     2     2     -0.295     -0.595     0.24
     240     2     2     0.42999999999999994     -0.3466666666666667     0.2833333333333333
     241     2     2     0.24999999999999994     -0.43333333333333335     0.2966666666666667
     242     2     2     0.195     -0.1975     0.23249999999999998
     243     2     2     -0.010000000000000009     -0.245     0.31499999999999995
     244     2     2     -0.21499999999999997     -0.2925     0.39749999999999996
     245     2     2     -0.07500000000000001     -0.67     0.45999999999999996
     246     2     2     -0.05666666666666667     -0.5633333333333334     0.61
     247     2     2     0.10666666666666666     -0.6166666666666667     0.56
     248     2     2     0.29     0.24666666666666667     0.2833333333333333
     249     2     2     0.32     0.25333333333333335     0.06666666666666665
     250     2     2     -0.26     -0.915     0.08000000000000002
     251     2     2     -0.4533333333333333     -0.33666666666666667     0.48000000000000004
     252     2     2     -0.33666666666666667     -0.42333333333333334     0.5700000000000001
     253     2     2     -0.51     0.14500000000000002     -0.115
     254     2     2     0.035     -0.28500000000000003     0.39
     255     2     2     0.315     -0.745     0.33499999999999996
     256     2     2     -0.56     -0.185     -0.20500000000000002
     257     2     2     0.015     -0.635     0.26
     258     2     2     -0.52     -0.605     0.11499999999999999
     259     2     2     0.11000000000000001     -0.7566666666666666     0.32666666666666666
     260     2     2     0.28     -0.6933333333333334     0.3933333333333333
     261     2     2     0.0175     0.07     0.2575
     262     2     2     -0.024999999999999994     -0.14     0.215
     263     2     2     -0.0675     -0.3500000000000001     0.1725
     264     2     2     -0.32999999999999996     -0.51     0.485
     265     2     2     -0.405     -0.055     0.46499999999999997
     266     2     2     0.2366666666666667     -0.38     -0.043333333333333335
     267     2     2     0.15333333333333335     -0.45     0.13333333333333333
     268     2     2     -0.07     0.33999999999999997     0.375
     269     2     2     -0.039999999999999994     -0.3566666666666667     0.4033333333333333
     270     2     2     -0.15     -0.19333333333333336     0.49666666666666665
     271     2     2     0.245     -0.38     0.47
     272     2     2     0.465     -0.155     0.11
     273     2     2     0.5249999999999999     -0.08     0.395
     274     2     2     -0.385     0.385     0.135
     275     2     2     0.09     -0.125     0.485
     276     2     2     0.445     0.09     0.14
     277     2     2     0.034999999999999996     -0.28500000000000003     0.39
     278     2     2     -0.48     -0.295     0.22499999999999998
     279     2     2     -0.38     -0.38     0.525
     280     2     2     0.56     -0.45     0.375
     281     2     2     0.345     -0.125     0.595
     282     2     2     0.485     -0.175     0.44999999999999996
     283     2     2     0.12000000000000002     -0.14500000000000002     0.45999999999999996
     284     2     2     -0.49     -0.305     0.43999999999999995
     285     2     2     -0.015     -0.66     0.09
     286     2     2     0.05500000000000001     -0.55     0.19
     287     2     2     0.22499999999999998     -0.74     0.29500000000000004
     288     2     2     0.53     -0.445     0.365
     289     2     2     0.49     0.015     0.16
     290     2     2     0.17     -0.595     0.41000000000000003
     291     2     2     -0.165     -0.42500000000000004     0.555
     292     2     2     0.31000000000000005     -0.515     0.31
     293     2     2     0.17500000000000002     -0.71     -0.035
     294     2     2     0.17500000000000002     0.015     0.5549999999999999
     295     2     2     0.04     -0.4     0.23500000000000001
     296     2     2     0.08     -0.29000000000000004     0.39
     297     2     2     -0.51     -0.03     0.20500000000000002
     298     2     2     -0.21666666666666667     -0.6533333333333333     0.30333333333333334
     299     2     2     -0.19333333333333333     -0.6266666666666667     0.11666666666666664
     300     2     2     0.395     -0.335     0.5449999999999999
     301     2     2     0.55     -0.1     0.09
     302     2     2     -0.07999999999999999     -0.77     0.315
     303     2     2     0.495     -0.61     0.024999999999999994
     304     2     2     0.12     0.5249999999999999     -0.015
     305     2     2     0.54     -0.14500000000000002     0.365
     306     2     2     0.53     0.030000000000000006     0.19
     307     2     2     -0.015     0.38     0.355
     308     2     2     -0.475     -0.28500000000000003     0.28
     309     2     2     -0.26     -0.815     0.045
     310     2     2     0.0     -0.275     0.7
     311     2     2     0.23666666666666666     -0.4766666666666667     0.35333333333333333
     312     2     2     0.4033333333333333     -0.43333333333333335     0.39666666666666667
     313     2     2     0.27     0.10500000000000001     0.5449999999999999
     314     2     2     -0.56     -0.305     0.185
     315     2     2     -0.24999999999999997     -0.4466666666666667     0.4633333333333333
     316     2     2     -0.07999999999999996     -0.5533333333333333     0.44666666666666666
     317     2     2     -0.08499999999999999     -0.43500000000000005     0.39
     318     2     2     -0.16999999999999998     -0.8049999999999999     0.29000000000000004
     319     2     2     -0.39     0.25     0.29000000000000004
     320     2     2     -0.265     -0.34     0.46499999999999997
     321     2     2     0.3433333333333333     -0.19333333333333333     0.5766666666666667
     322     2     2     0.38666666666666666     -0.016666666666666663     0.5133333333333333
     323     2     2     0.0050000000000000044     -0.55     0.135
     324     2     2     -0.03     -0.41500000000000004     0.23
     325     2     2     -0.21500000000000002     -0.685     -0.10500000000000001
     326     2     2     -0.15     0.54     -0.005
     327     2     2     0.5349999999999999     -0.315     0.43
     328     2     2     -0.4     -0.044999999999999984     0.5349999999999999
     329     2     2     0.08499999999999999     0.39     0.345
     330     2     2     0.10500000000000001     -0.6000000000000001     0.42000000000000004
     331     2     2     0.595     -0.33999999999999997     0.2
     332     2     2     0.5     -0.11     -0.28500000000000003
     333     2     2     -0.475     -0.6699999999999999     0.22999999999999998
     334     2     2     -0.08499999999999999     -0.795     0.025000000000000005
     335     2     2     0.16     -0.47000000000000003     0.42000000000000004
     336     2     2     -0.43999999999999995     0.16     -0.05
     337     2     2     0.015     -0.39     0.32
     338     2     2     0.0049999999999999975     -0.265     0.33
     339     2     2     -0.47     -0.12     0.0050000000000000044
     340     2     2     -0.185     -0.775     0.135
     341     2     2     -0.32     -0.59     -0.1
     342     2     2     0.0050000000000000044     -0.525     0.32
     343     2     2     -0.025000000000000022     -0.5700000000000001     0.035
     344     2     2     -0.56     -0.305     0.185
     345     2     2     -0.07666666666666666     0.25     0.06
     346     2     2     -0.22333333333333333     0.020000000000000018     0.10999999999999999
     347     2     2     0.003333333333333334     0.03     0.3766666666666667
     348     2     2     0.05666666666666667     -0.14     0.41333333333333333
     349     2     2     0.14500000000000002     -0.5549999999999999     0.095
     350     2     2     0.57     -0.15000000000000002     0.045
     351     2     2     0.065     -0.1     0.61
     352     2     2     0.4     0.325     0.0
     353     2     2     -0.425     -0.07500000000000001     0.22000000000000003
     354     2     2     -0.09     -0.6000000000000001     0.2
     355     2     2     0.355     0.065     0.52
     356     2     2     0.15000000000000002     -0.13333333333333336     0.5433333333333333
     357     2     2     0.020000000000000018     -0.2366666666666667     0.49666666666666665
     358     2     2     0.49     -0.1     0.22999999999999998
     359     2     2     0.5800000000000001     -0.385     0.29000000000000004
     360     2     2     -0.405     -0.28500000000000003     0.5349999999999999
     361     2     2     0.41000000000000003     -0.5900000000000001     0.41000000000000003
     362     2     2     -0.37     -0.37     0.31000000000000005
     363     2     2     0.41999999999999993     -0.35333333333333333     0.03333333333333334
     364     2     2     0.26999999999999996     -0.44666666666666666     0.08666666666666667
     365     2     2     0.095     -0.53     0.225
     366     2     2     -0.45499999999999996     0.195     0.245
     367     2     2     0.43     -0.72     0.16
     368     2     2     0.08     -0.29000000000000004     0.39
     369     2     2     0.455     0.18     0.005
     370     2     2     0.095     0.415     -0.09500000000000001
     371     2     2     -0.06     -0.12499999999999997     0.6599999999999999
     372     2     2     -0.49     -0.05499999999999999     0.435
     373     2     2     -0.01999999999999999     -0.43000000000000005     0.38
     374     2     2     -0.53     -0.13     0.135
     375     2     2     0.035     -0.6950000000000001     0.31
     376     2     2     0.125     -0.08000000000000002     0.5974999999999999
     377     2     2     0.19     0.09999999999999998     0.495
     378     2     2     0.255     0.28     0.39249999999999996
     379     2     2     0.2866666666666666     -0.6233333333333333     -0.05
     380     2     2     0.08333333333333331     -0.6466666666666667     0.009999999999999995
     381     2     2     0.0     -0.6950000000000001     0.405
     382     2     2     0.39     -0.10666666666666667     0.48333333333333334
     383     2     2     0.5     -0.18333333333333335     0.3766666666666667
     384     2     2     0.54     0.015000000000000006     -0.03499999999999999
     385     2     2     -0.405     0.225     0.135
     386     2     2     0.475     -0.42000000000000004     0.46499999999999997
     387     2     2     0.3066666666666667     0.016666666666666663     0.03333333333333334
     388     2     2     0.21333333333333335     0.18333333333333332     -0.08333333333333331
     389     2     2     0.030000000000000013     -0.565     0.09
     390     2     2     -0.47     -0.65     0.06666666666666665
     391     2     2     -0.37     -0.8     0.013333333333333322
     392     2     2     -0.415     -0.335     -0.19
     393     2     2     -0.315     -0.12     0.375
     394     2     2     -0.5249999999999999     -0.095     0.335
     395     2     2     0.07500000000000001     -0.64     0.18
     396     2     2     0.4166666666666667     -0.29333333333333333     -0.05666666666666667
     397     2     2     0.5133333333333333     -0.27666666666666667     0.10666666666666666
     398     2     2     0.13333333333333333     -0.76     0.27
     399     2     2     0.17666666666666667     -0.86     0.10999999999999999
     400     2     2     0.345     0.2     0.475
     401     2     2     0.09     -0.41500000000000004     0.38
     402     2     2     0.10500000000000001     -0.6000000000000001     0.42000000000000004
     403     2     2     0.22     -0.42500000000000004     -0.04000000000000001
     404     2     2     -0.15000000000000002     -0.9     0.09
     405     2     2     -0.465     0.01999999999999999     0.2
     406     2     2     0.48     -0.365     0.45499999999999996
     407     2     2     0.43     0.165     -0.16499999999999998
     408     2     2     -0.155     -0.85     0.23
     409     2     2     0.010000000000000002     0.13     0.43000000000000005
     410     2     2     -0.14     -0.5549999999999999     0.6100000000000001
     411     2     2     -0.195     0.45999999999999996     0.355
     412     2     2     -0.015     -0.66     0.09
     413     2     2     -0.06     -0.41000000000000003     0.515
     414     2     2     0.495     -0.07     0.345
     415     2     2     0.575     -0.15500000000000003     0.145
     416     2     2     -0.2866666666666666     -0.09333333333333332     0.06333333333333332
     417     2     2     -0.1633333333333333     -0.17666666666666667     0.19666666666666666
     418     2     2     -0.5249999999999999     -0.095     0.335
     419     2     2     -0.075     -0.30000000000000004     0.39
     420     2     2     0.04000000000000001     -0.56     0.6100000000000001
     421     2     2     0.245     -0.43999999999999995     -0.08499999999999999
     422     2     2     -0.365     0.16499999999999998     -0.02500000000000001
     423     2     2     0.36666666666666664     -0.4533333333333333     0.48
     424     2     2     0.43333333333333335     -0.5366666666666666     0.32
     425     2     2     0.375     -0.5     0.55
     426     2     2     0.20500000000000002     -0.595     0.585
     427     2     2     0.10500000000000001     -0.52     0.485
     428     2     2     -0.02333333333333333     -0.6366666666666666     0.2833333333333333
     429     2     2     0.013333333333333336     -0.4533333333333333     0.3066666666666667
     430     2     2     0.26     -0.5533333333333333     0.4933333333333334
     431     2     2     0.38     -0.5866666666666667     0.3266666666666667
     432     2     2     -0.009999999999999995     -0.625     0.345
     433     2     2     0.245     -0.84     0.22499999999999998
     434     2     2     0.5566666666666666     -0.18666666666666668     0.08666666666666667
     435     2     2     0.5333333333333333     0.046666666666666634     0.043333333333333335
     436     2     2     0.385     0.035     0.43
     437     2     2     -0.5249999999999999     -0.565     0.235
     438     2     2     0.010000000000000009     -0.67     0.21666666666666667
     439     2     2     0.14     -0.67     0.36333333333333334
     440     2     2     0.43999999999999995     -0.165     0.54
     441     2     2     0.225     -0.485     0.4
     442     2     2     -0.365     0.13     0.395
     443     2     2     -0.515     -0.009999999999999995     0.31000000000000005
     444     2     2     -0.2633333333333333     -0.39333333333333337     0.34
     445     2     2     -0.41666666666666663     -0.44666666666666666     0.23
     446     2     2     -0.065     -0.585     0.545
     447     2     2     -0.425     -0.5800000000000001     0.405
     448     2     2     0.4     -0.03499999999999999     0.07999999999999999
     449     2     2     -0.39999999999999997     -0.5866666666666667     0.016666666666666663
     450     2     2     -0.32999999999999996     -0.4633333333333334     -0.07666666666666667
     451     2     2     -0.475     -0.6699999999999999     0.22999999999999998
     452     2     2     -0.24     -0.47     0.52
     453     2     2     -0.095     0.24000000000000002     0.405
     454     2     2     -0.16499999999999998     -0.7050000000000001     0.435